# vtk DataFile Version 4.0
hesp visualization file
ASCII
DATASET UNSTRUCTURED_GRID
POINTS 1250 double
28.183551 -7.6718297 4
28.361282 -6.2587412 4
30.880283 -8.3769518 4
27.213637 1.9426094 4
33.795663 6.4398624 4
33.038177 3.7810019 4
33.055783 -7.3022136 4
36.29565 10.439184 4
30.212599 13.631995 4
28.399532 7.8167591 4
33.930473 12.055721 4
34.08278 12.880373 4
32.927282 10.848038 4
31.605675 13.795904 4
28.768146 21.359454 4
35.667781 12.195523 4
27.886084 26.698406 4
28.738012 17.967168 4
29.937751 21.247622 4
30.278643 31.170686 4
29.565391 26.296963 4
30.85206 28.943396 4
33.883987 21.325576 4
30.817495 51.243923 4
31.183702 40.534394 4
44.390893 -12.853085 4
26.708578 -5.7360849 4
24.026536 -10.950227 4
30.889834 0.93412825 4
27.808358 6.2702733 4
26.691999 3.2430614 4
24.74558 -2.0154127 4
31.013855 -5.9542648 4
28.810525 0.93915911 4
28.006138 2.4815157 4
25.257368 9.2575317 4
34.596914 7.0509034 4
31.71376 14.043835 4
29.426451 9.5137045 4
33.637768 12.101349 4
28.867142 22.386933 4
29.437794 13.729521 4
26.996774 18.486924 4
33.321491 19.782981 4
32.686551 26.093693 4
29.463799 32.046688 4
30.04943 22.600481 4
30.28017 31.872457 4
30.71403 44.573934 4
30.41131 34.452628 4
32.256491 -7.5137997 4
31.963759 -16.845359 4
30.458433 -6.1303967 4
35.238404 2.2186575 4
40.37534 -9.8211624 4
36.628055 1.4011078 4
31.454397 -6.4600671 4
35.127432 10.504001 4
33.466176 8.3724075 4
35.090418 8.3171443 4
31.188964 7.0818976 4
28.815188 8.3520688 4
31.41497 9.6140193 4
33.382378 6.4356507 4
31.742513 13.554743 4
30.753285 12.794636 4
30.79858 15.644526 4
37.094906 20.923403 4
31.524674 16.179958 4
28.983034 31.709705 4
28.475451 20.159814 4
36.822391 25.442435 4
29.96253 20.488985 4
33.648136 33.414173 4
32.951912 26.665182 4
38.936874 -20.067335 4
29.253869 -4.7543513 4
30.87441 9.3646876 4
35.998123 -10.817444 4
26.975761 5.3409482 4
28.03833 6.407136 4
26.437141 8.7155883 4
33.138091 8.3867875 4
29.208517 10.288894 4
33.932725 8.1002134 4
27.609221 15.155683 4
31.905989 8.1386961 4
31.165815 16.600979 4
33.268508 16.921372 4
30.692628 8.4331007 4
31.82876 15.277985 4
28.479471 14.033283 4
34.051223 12.539296 4
31.584817 18.930748 4
30.447072 24.254625 4
37.384049 10.183994 4
29.804017 25.133672 4
29.768078 27.726264 4
29.707097 30.371914 4
32.716909 49.116368 4
36.314155 -14.665855 4
26.148022 -15.317128 4
34.583548 -0.3706293 4
35.314964 6.1642197 4
22.533093 -6.6940993 4
26.589356 5.870909 4
30.367434 4.0018923 4
28.739255 1.2554149 4
36.283914 6.0013966 4
35.440327 4.5119015 4
31.490225 7.0537475 4
33.714994 2.7641918 4
34.855231 12.058368 4
31.179998 7.5058567 4
33.942658 15.595046 4
37.160676 19.119684 4
34.758836 13.520171 4
31.925004 15.742515 4
32.473768 18.360356 4
36.605566 22.895532 4
31.0541 27.775975 4
34.902782 29.094337 4
36.027038 25.516316 4
31.301837 32.253623 4
33.370178 30.008647 4
27.589047 -11.350328 4
27.178789 -15.666558 4
38.159631 9.8279111 4
33.519637 3.8641916 4
32.113594 2.2669885 4
35.506631 9.1074438 4
33.410777 5.7080599 4
36.104605 3.9199073 4
34.230132 14.426483 4
40.964348 18.06361 4
35.048542 14.875768 4
34.240696 16.199442 4
32.753965 22.602794 4
39.899612 15.606658 4
33.670475 12.993858 4
32.770704 24.579359 4
31.518648 24.02597 4
35.449283 23.411396 4
35.126869 28.864921 4
35.284586 32.125798 4
33.143449 32.914257 4
32.488984 21.08012 4
28.880138 28.868956 4
36.663888 38.99407 4
28.740677 34.197268 4
30.092166 3.3307009 4
23.953848 -17.768383 4
33.942529 -3.1968901 4
31.20116 -5.183083 4
30.969056 -2.7785791 4
29.262225 6.1093646 4
29.753408 6.7464882 4
35.72569 8.3579945 4
32.343639 11.522114 4
28.451273 10.424904 4
38.451588 11.895827 4
29.328658 14.126814 4
30.942778 11.102519 4
31.393895 14.895471 4
27.764999 18.203893 4
27.494778 15.437599 4
30.285198 19.582887 4
30.321189 23.314725 4
34.348989 30.162402 4
32.096161 25.209647 4
32.071603 27.506213 4
30.906369 28.492552 4
32.093106 34.539828 4
33.301247 28.919528 4
25.891665 38.104112 4
46.419208 -8.377447 4
32.557598 -4.8266952 4
32.855221 -10.076897 4
32.728089 3.3431015 4
35.561818 8.8213226 4
26.848711 -10.951941 4
34.163312 7.9900573 4
24.111993 6.7274551 4
34.610553 3.966113 4
35.390728 4.9387717 4
33.963918 10.10772 4
28.937975 13.96309 4
34.629712 22.927517 4
34.226345 10.138866 4
35.367759 15.624148 4
33.112695 19.180228 4
34.817763 16.950745 4
31.197305 24.233768 4
36.645837 21.153111 4
29.568373 22.479118 4
29.866936 17.271145 4
26.555302 35.678803 4
35.113081 33.56823 4
32.017931 29.8099 4
43.888358 40.478973 4
30.630624 5.2156559 4
32.976213 3.0134648 4
32.503403 -0.84025436 4
34.053992 -14.24815 4
32.840501 -3.4645734 4
29.800635 3.8134366 4
35.482019 3.0995748 4
37.113431 8.4246004 4
34.032864 11.365131 4
34.682778 9.9264884 4
31.526246 17.099486 4
32.128298 19.631585 4
29.636214 15.850111 4
29.203513 15.245355 4
37.578005 23.306239 4
37.303202 18.693524 4
31.531538 12.280758 4
32.114582 7.5396506 4
30.386539 14.592514 4
35.450731 19.5235 4
38.793073 25.39076 4
37.433944 29.542454 4
31.529852 22.262497 4
37.808557 33.670342 4
34.089569 32.007673 4
32.643163 -4.3978983 4
23.471382 -7.851182 4
36.869258 -5.7313199 4
33.573148 11.623582 4
29.635028 1.7880773 4
34.167505 7.0284259 4
35.838561 7.7347208 4
38.935332 8.4465462 4
35.49392 15.167542 4
39.560595 7.8821212 4
31.812184 12.730021 4
28.405421 11.516792 4
32.370284 17.771832 4
36.663018 11.48162 4
34.035653 19.139772 4
32.435105 19.399334 4
34.204058 21.969272 4
33.343889 28.532045 4
34.056701 20.937615 4
33.186284 26.968133 4
33.473584 22.93798 4
28.770569 25.427068 4
33.17464 31.584307 4
35.889983 33.267668 4
24.052112 35.42613 4
25.711307 -10.078122 4
32.069484 -3.0838775 4
33.234184 -1.0684194 4
27.12685 -2.5393689 4
41.609477 4.9885997 4
33.724521 2.4357011 4
38.867374 9.1286045 4
35.172336 1.7803583 4
35.114835 7.9411553 4
35.053043 12.481085 4
33.873755 16.778851 4
37.283936 14.590881 4
41.068591 11.358239 4
39.315452 10.329327 4
33.313247 18.994091 4
33.025842 18.245887 4
36.431531 14.389396 4
28.702479 21.867176 4
34.245641 19.338048 4
35.315422 24.902623 4
35.280052 27.738071 4
30.860887 20.427656 4
33.304311 23.526665 4
30.04911 31.3345 4
29.464004 33.644319 4
38.302349 -14.713259 4
31.233176 -3.4915614 4
28.326723 3.8439827 4
36.851395 6.32766 4
36.022369 7.2111914 4
38.764614 5.196394 4
33.912536 4.8930044 4
29.929012 8.1817697 4
35.378189 11.901555 4
33.023015 9.7442047 4
34.911306 15.430926 4
32.813871 13.416058 4
34.239219 18.564385 4
32.093984 15.044361 4
37.011774 21.271949 4
37.952963 22.413624 4
35.708524 17.627932 4
33.369288 22.616174 4
33.471427 25.428438 4
34.512887 23.43396 4
33.520296 25.694506 4
32.963539 25.272016 4
29.805051 32.16776 4
28.404692 41.794623 4
41.022038 39.99749 4
34.224562 -5.1890535 4
33.625996 -0.03737721 4
31.672745 1.3035657 4
28.654548 4.9629706 4
31.234381 3.4112811 4
34.520111 -2.3447368 4
37.262658 6.6261865 4
38.464543 11.345445 4
39.541406 9.2243361 4
32.231987 8.9574407 4
38.400915 6.3815713 4
32.837348 15.346537 4
32.748803 16.228241 4
31.006704 15.88403 4
31.982428 15.987753 4
51.726186 14.403653 4
34.941963 26.19268 4
33.95758 24.674426 4
35.330595 22.542323 4
42.562729 31.588282 4
35.58559 30.900152 4
33.05565 27.490706 4
36.354441 29.614547 4
32.971281 37.611625 4
33.956126 41.540471 4
34.770712 -9.707778 4
34.823255 -0.82638897 4
33.811045 4.3278937 4
34.393393 3.6506583 4
30.509134 2.550192 4
38.34081 5.8629531 4
33.672388 7.2754379 4
36.33913 6.8682904 4
34.825904 6.8126279 4
33.421505 4.8780398 4
39.362343 9.3897841 4
36.239493 13.043231 4
28.956377 12.139106 4
36.920027 14.809367 4
40.436079 18.869142 4
37.280929 16.362445 4
39.710164 20.925981 4
36.026818 16.27112 4
36.012847 17.824999 4
37.228571 21.55518 4
38.405324 24.399619 4
32.731833 22.932577 4
35.052486 25.39227 4
38.796525 36.208603 4
34.584362 38.133922 4
37.284963 -1.3112349 4
34.393218 -12.758754 4
35.789083 0.083541376 4
34.347079 0.55540386 4
34.276201 1.8485027 4
34.76384 4.6397513 4
34.294289 4.7546268 4
30.516835 5.5447125 4
36.373042 15.962656 4
36.887012 7.2998414 4
34.722019 15.592419 4
35.941577 12.030063 4
39.531697 15.560923 4
35.611718 17.106277 4
34.592348 18.000256 4
31.335059 18.536513 4
34.317424 18.033312 4
37.860907 21.182326 4
36.592161 24.312641 4
34.924266 26.702063 4
33.190358 26.356309 4
33.553886 29.716848 4
37.306235 20.575027 4
33.623873 35.2736 4
37.242728 33.493979 4
32.637194 -1.7633875 4
37.941948 -1.1205798 4
32.469494 2.9679588 4
30.831855 4.4205612 4
34.235075 2.8407218 4
39.436462 8.9231258 4
36.740934 14.122577 4
37.558 11.877254 4
36.107798 9.2928678 4
36.991855 13.945303 4
36.849692 16.537493 4
37.863809 16.937993 4
35.0106 19.663541 4
41.238856 20.989805 4
33.423598 16.053598 4
39.068754 16.215501 4
36.533747 18.144443 4
35.440343 17.772601 4
38.642243 14.845736 4
37.86644 20.467368 4
36.76268 20.405936 4
37.919848 29.905183 4
38.219643 35.143409 4
32.157799 26.095449 4
30.100806 33.638177 4
39.478786 -1.4748307 4
35.744112 3.468093 4
33.552707 -2.7672988 4
36.155099 3.3650649 4
34.172244 5.5909054 4
33.98161 5.9371912 4
41.076963 10.249473 4
36.264368 4.6824864 4
34.334054 7.6879509 4
35.773458 13.239138 4
32.131482 16.992775 4
38.386335 8.9071798 4
36.782712 12.547887 4
36.683384 20.161049 4
37.65027 18.020317 4
37.616236 16.195828 4
34.884345 16.172163 4
35.679484 22.623618 4
36.364451 19.628442 4
34.518844 27.838983 4
34.368244 26.066621 4
35.491198 27.214431 4
35.895254 24.85216 4
29.326207 35.017649 4
34.80651 30.557379 4
33.601983 -2.045733 4
37.913563 1.9851544 4
35.421283 4.1463373 4
37.3926 1.9548569 4
38.149398 4.1093202 4
36.8739 7.0223256 4
37.362731 9.0413293 4
36.55065 10.992973 4
34.656172 9.404789 4
37.472891 14.145062 4
36.840528 15.664139 4
37.567924 14.715549 4
36.600032 12.807294 4
35.569918 16.564987 4
33.545728 18.3063 4
37.436035 24.521709 4
35.108544 19.932948 4
35.199519 20.40832 4
37.314044 22.28428 4
39.350908 21.149228 4
37.811864 24.579729 4
35.964571 24.291622 4
35.002425 29.675716 4
35.658991 25.698232 4
36.412587 32.876269 4
35.011615 -3.4922312 4
[...]
POINT_DATA 1250
SCALARS m double
LOOKUP_TABLE default
1
1
1
1
1
1
1
1
1
1
1
1
1
1
1
1
1
1
1
1
1
1
1
1
1
1
1
1
1
1
1
1
1
1
1
1
1
1
1
1
1
1
1
1
1
1
1
1
1
1
1
1
1
1
1
1
1
1
1
1
1
1
1
1
1
1
1
1
1
1
1
1
1
1
1
1
1
1
1
1
1
1
1
1
1
1
1
1
1
1
1
1
1
1
1
1
1
1
1
1
1
1
1
1
1
1
1
1
1
1
1
1
1
1
1
1
1
1
1
1
1
1
1
1
1
1
1
1
1
1
1
1
1
1
1
1
1
1
1
1
1
1
1
1
1
1
1
1
1
1
1
1
1
1
1
1
1
1
1
1
1
1
1
1
1
1
1
1
1
1
1
1
1
1
1
1
1
1
1
1
1
1
1
1
1
1
1
1
1
1
1
1
1
1
1
1
1
1
1
1
1
1
1
1
1
1
1
1
1
1
1
1
1
1
1
1
1
1
1
1
1
1
1
1
1
1
1
1
1
1
1
1
1
1
1
1
1
1
1
1
1
1
1
1
1
1
1
1
1
1
1
1
1
1
1
1
1
1
1
1
1
1
1
1
1
1
1
1
1
1
1
1
1
1
1
1
1
1
1
1
1
1
1
1
1
1
1
1
1
1
1
1
1
1
1
1
1
1
1
1
1
1
1
1
1
1
1
1
1
1
1
1
1
1
1
1
1
1
1
1
1
1
1
1
1
1
1
1
1
1
1
1
1
1
1
1
1
1
1
1
1
1
1
1
1
1
1
1
1
1
1
1
1
1
1
1
1
1
1
1
1
1
1
1
1
1
1
1
1
1
1
1
1
1
1
1
1
1
1
1
1
1
1
1
1
1
1
1
1
1
1
1
1
1
1
1
1
1
1
1
1
1
1
1
1
1
1
1
1
1
1
1
1
1
1
1
1
1
1
1
1
1
1
1
1
1
1
1
1
1
1
1
1
1
1
1
1
1
1
1
1
1
1
1
1
1
1
1
1
1
1
1
1
1
1
1
1
1
1
1
1
1
1
1
1
1
1
1
1
1
1
1
1
1
1
1
1
1
1
1
1
1
1
1
1
1
1
1
1
1
1
1
1
1
1
1
1
1
1
1
1
1
1
1
1
1
1
1
1
1
1
1
1
1
1
1
1
1
1
1
1
1
1
1
1
1
1
1
1
1
1
1
1
1
1
1
1
1
1
1
1
1
1
1
1
1
1
1
1
1
1
1
1
1
1
1
1
1
1
1
1
1
1
1
1
1
1
1
1
1
1
1
1
1
1
1
1
1
1
1
1
1
1
1
1
1
1
1
1
1
1
1
1
1
1
1
1
1
1
1
1
1
1
1
1
1
1
1
1
1
1
1
1
1
1
1
1
1
1
1
1
1
1
1
1
1
1
1
1
1
1
1
1
1
1
1
1
1
1
1
1
1
1
1
1
1
1
1
1
1
1
1
1
1
1
1
1
1
1
1
1
1
1
1
1
1
1
1
1
1
1
1
1
1
1
1
1
1
1
1
1
1
1
1
1
1
1
1
1
1
1
1
1
1
1
1
1
1
1
1
1
1
1
1
1
1
1
1
1
1
1
1
1
1
1
1
1
1
1
1
1
1
1
1
1
1
1
1
1
1
1
1
1
1
1
1
1
1
1
1
1
1
1
1
1
1
1
1
1
1
1
1
1
1
1
1
1
1
1
1
1
1
1
1
1
1
1
1
1
1
1
1
1
1
1
1
1
1
1
1
1
1
1
1
1
1
1
1
1
1
1
1
1
1
1
1
1
1
1
1
1
1
1
1
1
1
1
1
1
1
1
1
1
1
1
1
1
1
1
1
1
1
1
1
1
1
1
1
1
1
1
1
1
1
1
1
1
1
1
1
1
1
1
1
1
1
1
1
1
1
1
1
1
1
1
1
1
1
1
1
1
1
1
1
1
1
1
1
1
1
1
1
1
1
1
1
1
1
1
1
1
1
1
1
1
1
1
1
1
1
1
1
1
1
1
1
1
1
1
1
1
1
1
1
1
1
1
1
1
1
1
1
1
1
1
1
1
1
1
1
1
1
1
1
1
1
1
1
1
1
1
1
1
1
1
1
1
1
1
1
1
1
1
1
1
1
1
1
1
1
1
1
1
1
1
1
1
1
1
1
1
1
1
1
1
1
1
1
1
1
1
1
1
1
1
1
1
1
1
1
1
1
1
1
1
1
1
1
1
1
1
1
1
1
1
1
1
1
1
1
1
1
1
1
1
1
1
1
1
1
1
1
1
1
1
1
1
1
1
1
1
1
1
1
1
1
1
1
1
1
1
1
1
1
1
1
1
1
1
1
1
1
1
1
1
1
1
1
1
1
1
1
1
1
1
1
1
1
1
1
1
1
1
1
1
1
1
1
1
1
1
1
1
1
1
1
1
1
1
1
1
1
1
1
1
1
1
1
1
1
1
1
1
1
1
1
1
1
1
1
1
1
1
1
1
1
1
1
1
1
1
1
1
1
1
1
1
1
1
1
1
1
1
1
1
1
1
1
1
1
1
1
1
1
1
1
1
1
1
1
1
1
1
1
1
1
1
1
1
1
1
1
1
1
1
1
1
1
1
1
1
1
1
1
1
1
1
1
1
1
1
1
1
1
1
1
1
1
1
1
1
1
1
1
1
1
1
1
1
1
1
1
1
1
1
1
1
1
1
1
1
1
1
1
1
1
1
1
1
1
1
1
1
1
1
1
1
1
1
1
1
1
1
1
1
1
1
1
1
1
1
1
1
1
1
1
1
1
1
1
1
1
1
1
1
1
1
1
1
1
VECTORS v double
1.6616459 -8.8868836 0
3.7529119 -10.015806 0
-1.2504774 -16.337646 0
17.239024 -0.5697146 0
18.842787 -1.7488637 0
-5.6230104 -0.014338278 0
-2.1220411 -23.013455 0
-1.0485711 -0.86966923 0
-2.8982148 -6.3858798 0
0.75223704 3.4491062 0
0.042344899 -1.7966919 0
-1.0501441 -3.8306078 0
2.8642351 -6.424252 0
7.1938057 -23.418345 0
2.6276058 11.641938 0
5.9297403 -8.1641538 0
3.6053852 5.4147993 0
3.445618 -6.6760947 0
-3.9246658 10.545314 0
-1.6895035 -0.46805926 0
5.8000512 -8.0535614 0
-5.3469646 5.5837183 0
11.58963 -3.064168 0
0.20851595 22.962113 0
1.7490176 11.115022 0
8.8399697 -9.0826405 0
-0.25421451 -9.6379217 0
-8.924682 -14.318907 0
-8.6228888 -7.9141495 0
-5.4553408 -12.041508 0
-7.399763 4.2626566 0
-7.5759868 -7.4156736 0
13.064361 -32.583434 0
3.1229657 -14.354097 0
-11.192651 -3.5375478 0
-17.270703 -22.544926 0
-3.7683963 -5.0936754 0
19.95556 1.9763974 0
5.3094197 -5.9536051 0
4.4154688 6.0561451 0
25.00563 6.5333563 0
8.562731 5.3626818 0
17.364845 8.2384554 0
-5.2532264 7.0081859 0
-5.1604582 6.8640134 0
0.76229699 -1.0031041 0
1.7611069 12.842501 0
-4.1867381 -0.075093141 0
1.4688879 13.66397 0
2.7005204 11.989178 0
3.2928741 -9.9573253 0
3.1086732 -15.900926 0
2.0124307 -19.898631 0
7.5203469 -0.78903425 0
10.75519 -12.551499 0
-0.70652442 -5.9697616 0
3.7241002 -12.72556 0
13.690739 -1.7182147 0
3.298059 -9.6480374 0
7.5518007 -14.034466 0
8.1366102 2.3505035 0
13.288208 -15.397448 0
1.4526454 -9.0610957 0
4.5951024 -14.003862 0
0.19754325 8.4160357 0
-0.93186913 0.94007532 0
-1.0873625 -3.3796323 0
0.1010106 -1.0522391 0
8.6872767 -2.3243709 0
5.7196326 4.8819322 0
-9.4544235 -5.4108995 0
1.4527653 15.031871 0
-3.6279523 -6.9308368 0
-3.4007388 7.6992447 0
-6.8926461 0.4348407 0
3.9466542 -13.879275 0
-3.2997342 -4.9290247 0
-2.5706201 5.5485667 0
5.1165385 -14.873552 0
2.7371973 -1.9741018 0
-9.7269488 0.25658634 0
-0.86337343 -0.9040435 0
5.8306689 -11.240328 0
-0.594036 -7.5639418 0
-0.44337047 8.8432898 0
-11.892842 4.7748736 0
-1.5621857 3.5660818 0
9.9559578 2.5193532 0
5.912632 -10.153823 0
12.393067 -6.2921533 0
-5.568909 -11.012751 0
-2.9004287 -1.4406782 0
-1.5694811 1.0858483 0
-7.7888694 -5.0684305 0
10.135487 11.485129 0
4.5027899 -7.0821472 0
12.616577 -1.1293927 0
5.1354315 2.6407801 0
-0.0071608959 3.9101474 0
0.47110466 14.494984 0
3.3724419 -12.746328 0
-5.5353074 -14.739211 0
-1.5905539 -13.480639 0
1.8523192 -3.7668552 0
-8.23784 -8.4681026 0
-7.8375534 -5.2517293 0
-16.118879 3.5231405 0
0.54559403 -4.3078979 0
2.166092 0.015361847 0
-1.9216537 2.6765078 0
9.7415622 -14.930321 0
-6.5103642 -3.0197297 0
8.023692 -2.9892177 0
-2.3961134 -6.676051 0
-5.3842948 -1.4609759 0
-1.1399535 6.1937609 0
19.119965 11.952512 0
7.4482654 -7.3089204 0
1.1143774 -5.1013044 0
2.9905998 6.2302311 0
-5.2753415 2.0115641 0
2.6706858 8.4874839 0
-1.6732911 0.5698953 0
-2.4244042 9.5690963 0
10.214556 9.3525129 0
-2.3623527 -9.0010843 0
0.063815283 -22.510229 0
-5.840981 6.8877635 0
-5.5619241 -12.327714 0
1.5569535 0.055221675 0
-9.5678941 -3.4031271 0
-1.0946778 -7.3894439 0
-1.8447223 -13.852856 0
-3.0076162 10.822148 0
13.280876 -0.78173862 0
-0.01549147 -4.3539103 0
-8.6924748 -2.0118146 0
3.7484243 10.754126 0
1.2045341 -2.2631366 0
20.497691 -1.6609124 0
-0.78787036 8.9010728 0
3.559696 15.437299 0
7.0265187 5.1031806 0
-0.19660731 10.373985 0
-6.6925009 6.025361 0
6.9303503 7.1450763 0
0.64789062 5.241966 0
-1.9861756 -4.2272192 0
2.7835867 9.3004992 0
0.61198836 13.153994 0
-5.3215216 -9.1521843 0
-7.1221573 -15.01762 0
-5.8696436 -18.950958 0
12.564525 -6.5487911 0
5.6399393 -14.76176 0
-4.8243823 3.4074225 0
-4.9008372 0.55411739 0
17.950165 -7.2280464 0
10.468116 -0.8161272 0
13.280412 -10.53225 0
8.3028221 -7.3255149 0
-10.593131 1.755441 0
-0.17401945 -0.84073732 0
-1.7405055 4.9534577 0
-3.7563948 -4.2423649 0
-1.8979262 -0.95846331 0
5.817738 -5.3699712 0
12.415672 1.7915932 0
-2.0683677 11.445975 0
-3.2642325 14.616643 0
5.0863154 9.9145484 0
-11.343077 10.927334 0
6.4120623 17.557583 0
-3.4425236 -2.6392457 0
-2.2837089 10.290974 0
7.9152496 -6.5258364 0
13.869874 -10.121533 0
0.10043497 -13.988383 0
3.5995008 -13.271999 0
3.5151538 -1.5290363 0
-4.6969777 -16.491086 0
-4.1035239 -7.0196861 0
8.5725101 23.554792 0
-4.9589182 -9.101641 0
-0.34649129 -6.7868972 0
-14.204478 -10.688119 0
3.917194 7.5908155 0
-3.0435883 6.0738961 0
-7.9231338 8.6597984 0
-1.9660086 4.0835102 0
3.6429965 -0.19238176 0
-15.266498 11.992904 0
1.3575157 8.1627563 0
-3.6998052 6.9845044 0
-1.8534573 -0.58901885 0
-15.031773 -8.8004499 0
-7.8394362 10.756926 0
4.3075274 9.9588659 0
-6.5371292 0.12600243 0
6.2745354 8.821453 0
-0.63369377 3.2829693 0
0.79730317 0.92886975 0
-7.0144238 -15.916508 0
0.73136975 -25.594036 0
8.8779663 -18.879888 0
1.8155863 -0.68123183 0
-0.34470193 -3.864356 0
6.2905675 -3.8500472 0
-3.9809921 -3.3014565 0
-1.1718651 -2.6668055 0
1.4693157 -0.11439607 0
-1.902154 1.6307806 0
0.16186582 3.6494733 0
-1.1079702 7.8300248 0
7.3430971 2.3344806 0
6.6710236 15.296279 0
-0.2183777 -2.7014887 0
-12.472277 -4.0633493 0
0.02742735 12.761721 0
-0.88112593 1.1608042 0
8.5137884 -2.2515036 0
-0.26558148 2.0743105 0
-8.9412875 2.6245806 0
6.2021848 6.834438 0
2.6440319 12.412263 0
1.0398209 -19.841556 0
-9.9740521 -15.061073 0
3.8615997 -18.093947 0
-3.3850108 -4.790406 0
5.7792738 -11.498795 0
7.7642856 8.4814674 0
-1.0259777 1.1029707 0
0.58548688 -7.3234686 0
-0.05220024 6.9787905 0
-5.5924361 5.6861572 0
-16.42033 2.9644374 0
-3.3090972 -1.3638978 0
-11.057669 7.5452388 0
-12.935027 -3.3044921 0
2.1825511 6.2476918 0
-0.68299657 8.975269 0
-7.4951682 12.768632 0
4.9257425 10.204149 0
2.8857223 -2.714457 0
-3.0940255 12.133129 0
6.9470026 -9.3133558 0
-11.864339 2.8055811 0
4.3003816 11.012032 0
5.645564 7.7022303 0
-5.9261658 10.853862 0
-1.3917218 -9.9783321 0
-1.2287953 -5.3523914 0
4.2694654 -5.7024045 0
11.070606 -25.458897 0
4.9575736 0.017956834 0
-4.0681112 -12.093855 0
5.4167027 2.2550234 0
0.20616319 -2.7854239 0
-6.3554377 -1.8772231 0
-4.9960343 5.7581514 0
-7.8860545 -5.4345404 0
2.5857044 -4.0014606 0
8.5547622 3.9413391 0
-0.062406316 10.095601 0
6.5635533 5.4893063 0
8.0370354 -0.33061963 0
2.2079247 -0.99162261 0
15.386792 -15.86704 0
4.4894433 11.754049 0
0.86375731 -0.89281288 0
-4.9026295 1.9953049 0
-7.1101246 -6.3310278 0
-5.1842583 0.9375854 0
1.1268354 12.005981 0
0.63879465 1.0102457 0
0.83132185 -12.772029 0
7.9658509 -2.174655 0
-7.1504043 -1.4937135 0
-5.7093447 0.90846092 0
0.87630982 4.6556241 0
0.32836102 -7.9891685 0
5.7835304 0.25987635 0
-6.5173455 -4.1814424 0
-2.1458669 0.52236549 0
8.0515698 -2.5346865 0
9.0300856 -9.1350856 0
3.9524424 1.431587 0
4.3952338 -9.6647061 0
4.3021318 5.1958744 0
-6.6841254 2.9133737 0
1.0088732 7.5045245 0
6.686114 -8.4454827 0
-0.98840877 3.1480453 0
-16.150685 5.6050345 0
-1.7399191 0.28962606 0
-0.41308533 2.5100339 0
-5.292932 5.7525808 0
-1.2886803 0.16632162 0
-5.9482791 8.2998805 0
3.3742083 9.8830455 0
4.3003872 -8.0793324 0
-3.1109627 -10.491608 0
6.8648841 1.0371109 0
-3.6323392 -2.0536266 0
-0.78799109 -12.046305 0
-0.86548733 -6.1055143 0
-12.375697 -10.783539 0
-2.001273 2.6870208 0
6.9358318 7.5214005 0
-4.2230094 -5.0711309 0
9.1238062 1.4640473 0
-11.146375 3.0193318 0
-5.054049 1.0285609 0
-5.6779112 9.2251429 0
-4.3087565 -0.073805003 0
11.979384 -7.2830737 0
-2.5288392 9.8996124 0
-3.3420988 4.5463715 0
6.4521117 -8.2768001 0
15.697056 5.9561084 0
-0.55964889 5.0626604 0
-13.263543 10.079246 0
-1.2485901 12.998531 0
-4.550568 9.4722258 0
4.6944936 19.014306 0
0.34336922 -14.635453 0
6.2498304 2.123688 0
-11.633389 -9.4754711 0
6.06739 -2.9375526 0
-2.1807533 4.2372323 0
0.71707025 -1.8820807 0
-4.2710777 -9.6107144 0
-2.3287392 -2.0381822 0
3.2470867 4.5925857 0
-20.731986 -6.2287755 0
0.070814272 3.2443813 0
-4.9020064 -6.8287881 0
7.6163375 0.46887695 0
2.0791745 12.556751 0
6.7054515 6.6464903 0
11.947158 1.9625966 0
18.970198 4.7467117 0
-3.4145243 -11.945404 0
4.5099225 5.08946 0
4.1662341 1.6548105 0
0.54321036 -6.9631956 0
-5.7277356 -1.7693429 0
23.973252 -4.74391 0
0.92458121 11.821034 0
5.9413691 17.889694 0
-2.4284582 -13.18605 0
2.2112836 -15.761641 0
11.198238 -2.4591809 0
1.7356725 -9.6128013 0
-0.68701053 -6.9316569 0
-1.4106699 -1.5143743 0
-6.6555121 0.90015254 0
-5.3583879 -9.0279992 0
6.0735338 7.2936546 0
-0.89374522 -3.2840178 0
-2.5129764 6.5365709 0
1.650255 -3.3415457 0
-0.91310295 -2.4881272 0
1.3632214 1.0319422 0
-7.6629967 10.967525 0
-7.7540226 -2.9514324 0
7.0195413 -2.688509 0
2.1440626 7.9609989 0
7.543695 -2.2683103 0
0.82985326 0.17449108 0
-0.69630953 -8.5883762 0
5.8802524 19.96966 0
5.2344444 -7.5916084 0
-4.0323623 9.213173 0
-1.1706371 11.48007 0
-7.0835894 -8.7575872 0
6.0256676 -6.8630535 0
-6.3960139 3.7114804 0
-0.96722321 -2.2538261 0
-3.0929458 -9.9140354 0
13.287697 -14.964136 0
-11.085293 12.459479 0
-3.2248298 -10.35492 0
0.69272672 -9.2925529 0
-7.8161306 3.4917631 0
-1.8698498 2.790861 0
7.4942004 7.8567784 0
2.5471289 2.435815 0
19.50977 14.501121 0
-6.4145611 -5.0933595 0
5.0900375 4.9699057 0
-12.812959 -6.2623242 0
17.597095 1.0837959 0
-0.22998199 5.8282239 0
1.5470436 -2.1756842 0
-1.1830096 0.38584233 0
3.0634846 5.784861 0
-0.28262366 12.872215 0
-4.4969482 8.2425153 0
-1.1778501 3.6355907 0
8.0563537 -6.6374848 0
2.990081 10.160565 0
-2.3236287 -12.455865 0
-5.1030482 -3.2235019 0
-3.8136593 0.20952464 0
-7.8810776 -14.649596 0
3.3651957 -1.5241036 0
-5.0670881 0.95237408 0
-1.4975457 4.4983955 0
-4.2804453 2.4095356 0
-4.6636163 7.6272545 0
14.46528 -7.4977747 0
7.6145416 -4.8538653 0
-13.009004 -2.1342335 0
0.33121797 3.0448843 0
4.9700525 -2.8878135 0
6.3648081 -5.500584 0
0.13368537 8.176182 0
-7.9733933 -7.5013785 0
-0.45906359 15.445201 0
-4.4396441 3.833376 0
3.7135212 9.024575 0
-6.5591861 5.3189731 0
-10.349037 11.324553 0
8.690725 11.632438 0
-13.252008 -11.425881 0
-12.477057 1.2986465 0
-2.8767604 4.9590598 0
5.6369851 3.5787304 0
-10.209318 -4.6301651 0
-10.674161 6.4939054 0
0.25415066 1.2342507 0
0.084458437 6.203333 0
2.061866 -6.3833791 0
-0.56770153 1.6292631 0
-13.129832 -0.53707413 0
-1.1890974 -2.1025098 0
-11.907695 -4.2174305 0
-6.6786763 -10.847903 0
-6.0282749 9.0763935 0
-4.0122422 11.496135 0
-19.650671 2.0900679 0
-7.7623993 -0.86735022 0
0.10437176 0.047857916 0
4.3188999 4.2070948 0
1.1377332 1.5258003 0
-9.0964961 6.1361336 0
-7.9906672 9.7360534 0
11.769491 2.8995584 0
-0.47599956 9.9853968 0
-5.7573621 -8.9722875 0
5.2873691 -17.345265 0
1.5448053 -12.270562 0
1.3791736 -1.250141 0
4.8772087 8.9209052 0
-0.86636693 3.6508808 0
-0.86500207 -13.289438 0
5.6115133 -5.3994361 0
7.3745541 -6.4157733 0
8.1326157 0.76636478 0
-4.4839853 3.2622213 0
11.640055 9.8721985 0
6.7396918 -2.8315146 0
7.1090636 0.41979451 0
5.1349502 4.9696861 0
-8.708893 13.337123 0
-10.972958 4.8919285 0
0.62056701 6.5457463 0
-6.6028879 0.10206415 0
-0.26112999 -8.004222 0
-15.384469 8.5876485 0
-0.19682062 1.0021348 0
-7.5050543 -1.7476046 0
-4.1836544 1.0318511 0
9.2342431 4.7555648 0
5.3734046 -11.853 0
1.7553816 -8.0733372 0
-3.3652354 -2.4670957 0
-9.437613 -4.7849231 0
-8.4350748 -5.1607665 0
3.8159581 -4.2602713 0
-2.2778129 -11.024 0
-3.9938989 -3.8747942 0
6.0073853 -7.0030704 0
3.1179788 -5.84964 0
-2.5761484 6.0246246 0
-11.061539 8.1996533 0
-2.3310543 7.0357757 0
10.664661 -2.2344882 0
-1.1817481 -3.4260508 0
0.4979057 4.8111372 0
-1.3086414 -1.6547879 0
-1.855339 2.2444122 0
-7.6591372 4.1882905 0
-8.4947307 0.10949381 0
-8.67437 -2.2184213 0
-9.795923 -0.34028349 0
-8.4285436 3.2012089 0
-6.5237184 9.6144836 0
-2.2418405 9.6846646 0
-0.87421265 -3.5176059 0
2.0553573 3.3740838 0
-3.8620977 -8.3704759 0
-0.69346606 -11.044661 0
2.5904551 1.8217644 0
-0.62606113 -20.252366 0
-4.8024932 -14.37833 0
-5.2427804 4.240297 0
2.9682724 -5.1245471 0
4.732421 4.9168735 0
0.4206791 12.037794 0
-1.7024575 -4.3261451 0
-9.1477632 -5.7377493 0
-8.8859644 -6.0231989 0
-0.11751734 6.5413428 0
-3.6841622 1.8018063 0
-7.3521115 12.20628 0
-11.009314 2.6173404 0
4.8978554 7.2882542 0
3.4291479 8.5354595 0
-6.5522257 1.5961555 0
1.1216382 5.3464764 0
-4.6931919 -0.10641202 0
-6.2093198 5.9574536 0
-2.266115 6.5412034 0
-6.8894949 -15.785165 0
-4.6479224 3.6642769 0
-8.5799916 4.3295067 0
-1.7922822 6.7992587 0
-6.9862744 -8.6585083 0
-8.3718429 4.2221367 0
-5.1913948 -4.0231865 0
-0.57935158 -5.8701066 0
8.6712087 7.102007 0
-10.024253 0.83700291 0
-3.015255 1.3232409 0
-1.6709232 -1.7127907 0
-2.586913 1.6266906 0
18.701848 -5.4315202 0
7.9421248 -8.2593265 0
-6.0861081 -4.7362361 0
9.1301635 -11.71496 0
-5.6275148 11.05968 0
-7.8397387 5.2817435 0
-0.90280043 7.2911178 0
-11.137983 -4.4172924 0
-12.968651 14.548852 0
-7.7501093 -4.5640415 0
-12.794378 2.8953422 0
-2.2220404 -2.9206604 0
-5.6214969 -6.4443903 0
-10.087649 0.071231264 0
7.0589778 -7.5054277 0
-10.727101 -0.95741684 0
-13.052647 -4.741815 0
-6.4852234 -1.5986934 0
3.0329785 4.70969 0
2.547323 1.1547155 0
8.0673658 4.2191105 0
-7.9264155 5.7714835 0
-7.3799108 -11.309272 0
4.6626684 4.163414 0
3.4584358 10.050289 0
5.9546365 -4.3790754 0
-0.20528792 -3.8061523 0
-1.9093831 1.582954 0
4.87166 8.5509885 0
-10.170562 3.7261288 0
1.1550943 1.4543774 0
6.1579801 13.284768 0
1.5431188 -3.1372825 0
6.6786673 14.076321 0
-9.5456879 -0.89680058 0
-9.8874952 0.77972915 0
-10.020274 -0.071539609 0
-10.006687 0.039642742 0
2.1166056 -1.1204721 0
-7.0135935 4.545864 0
8.7659763 -7.1624238 0
6.5885826 0.032668197 0
8.4464057 -11.912713 0
-10.080352 0.28402044 0
2.2729317 4.553998 0
-24.302416 -7.9231132 0
4.0436447 1.6882041 0
8.8914732 2.3964769 0
13.27935 4.7761947 0
-8.2146744 -5.1112574 0
-5.8098531 2.2447473 0
4.6390275 0.79799295 0
3.0174455 8.4947113 0
-3.1033153 4.8943884 0
8.7306116 -11.170817 0
-6.8473755 -5.7832634 0
-13.395147 1.7354239 0
-5.6480692 5.6631363 0
-0.96134629 13.86113 0
-4.7803438 3.8746836 0
0.6623469 6.7637919 0
-9.9998835 -0.019661716 0
-13.512264 -12.095982 0
-5.5751632 -1.2470222 0
-11.330533 -0.34126195 0
-9.7548532 -0.001031112 0
-10.037148 -0.011861073 0
-15.373464 -12.091102 0
0.85219227 -4.4471365 0
7.8994984 -13.720873 0
-9.9519927 -3.2001647 0
12.800489 4.2071541 0
5.1882578 -12.146552 0
0.35095778 -1.5608877 0
6.1661376 -0.099667336 0
2.2916812 -2.8124411 0
-3.2786378 10.321249 0
-2.2224217 -3.1005613 0
-4.6736952 1.8596896 0
-7.6529974 -2.7534417 0
-1.1072095 0.089338912 0
-12.283645 3.9570827 0
-9.5459943 -0.61280935 0
-10.003408 -0.016688597 0
-10.030017 0.040730761 0
-3.3370953 -8.1407831 0
-9.9998918 -0.04906633 0
9.3664052 -3.8409628 0
-6.5109575 3.1977796 0
4.0801682 -11.152276 0
6.0674415 -10.54461 0
-0.44902456 -10.263401 0
5.0149811 -5.2111136 0
-5.5850229 8.5409053 0
8.6473355 -4.1260935 0
14.280997 -3.6833043 0
-4.5745101 -5.4225814 0
0.59087475 0.38113031 0
-8.1670924 5.6168454 0
-0.45400975 8.376346 0
-11.76074 10.382079 0
1.1637833 17.312075 0
-8.8247455 5.1780444 0
-1.1456697 9.8845758 0
-5.7966784 8.0656538 0
-6.1439734 14.928423 0
1.7937596 13.478807 0
-8.0446877 13.915286 0
3.3206667 8.3925602 0
619808.48 -383949.33 0
-2.6282259 22.954801 0
-4.4983411 10.081677 0
-1.2978238 -13.925372 0
-1.765706 0.062148556 0
-9.2229228 -1.1349891 0
-0.54631519 -24.467113 0
-14.523508 0.84652476 0
-3.8688361 -20.163891 0
7.5666045 -2.2700673 0
4.026937 -3.7843483 0
2.0875533 1.3000431 0
-7.7779218 6.6668339 0
-3.4483134 4.8805452 0
-1.954132 -6.2740103 0
2.1644987 -8.3401078 0
-10.004988 3.3524136 0
8.926068 9.6185586 0
0.80799838 3.5689742 0
-6.8500493 5.791642 0
0.9399393 -2.3648487 0
18.343838 8.6242627 0
-6.8215239 22.67878 0
-3.2952463 11.793702 0
-5.1879787 1.8367415 0
1.7489385 3.6659576 0
-5.5186172 5.4215564 0
-1.4736691 21.822594 0
8.2354312 -6.0208538 0
-1.1905503 -7.4757275 0
2.3075613 -7.460327 0
1.4563316 -10.929108 0
-5.231906 -2.8199501 0
8.1765968 0.47422223 0
-1.2176953 -3.0637419 0
2.3992961 -10.423738 0
-3.3191883 13.419734 0
-3.3909692 1.6194659 0
17.438069 -2.7261909 0
-3.1329305 -9.0475132 0
1.0664748 4.1515648 0
-0.45369485 -2.6715262 0
-7.9293945 1.325283 0
-6.5969027 4.0371 0
9.3864193 -1.1683394 0
10.794401 10.765829 0
16.096947 -5.0229476 0
0.69106356 -2.7546023 0
4.2234401 20.672318 0
-2.2914414 11.509001 0
-0.4106212 9.7907683 0
-6.5874282 10.469668 0
6.9855308 1.8189462 0
-6.5486181 -6.7367923 0
-1.9603224 -10.561257 0
-5.9362204 -7.8961261 0
2.7159551 4.2177019 0
6.1585814 -9.8427301 0
1.1068463 -11.148327 0
14.97515 -5.2302395 0
2.9904613 -0.61186857 0
-3.0106008 -4.6848313 0
6.2329943 -12.661665 0
3.8998514 4.7807337 0
-2.729496 -2.7685879 0
11.905172 -0.1071671 0
4.5728978 -5.0225464 0
-6.3501283 7.3927986 0
-8.5658456 -12.017641 0
15.342097 -9.7782299 0
8.4257422 -0.57698159 0
11.34515 -4.2848853 0
0.38380295 -3.4497078 0
-0.98781252 -2.9910726 0
-2.5875095 5.0488275 0
7.4679888 12.589835 0
-2.0937888 -2.4429823 0
7.0375395 8.2927287 0
9.2263487 -9.4514971 0
-3.1269398 -9.2471961 0
-2.8283699 -0.13447986 0
12.278049 -0.88207201 0
7.9171262 -29.437424 0
1.3747791 -4.3533759 0
-0.24055919 -5.4444086 0
-2.4140631 -11.527339 0
-9.7839592 -6.9887197 0
9.3281659 -11.065839 0
1.7224526 11.997287 0
-10.780312 1.2109896 0
-2.5655143 -7.0224723 0
3.5328034 -4.3235683 0
-616227.85 387734.05 0
6.7280828 1.9032109 0
6.6389565 -0.62165461 0
5.5936465 8.5038994 0
-6.2214359 10.295058 0
-2.6538887 6.9415286 0
0.49922391 11.317386 0
1.3635226 23.701732 0
-0.22973294 16.782628 0
4.4692508 16.23626 0
9.1896282 5.7389556 0
5.5388557 -15.659253 0
1.3660831 -13.186201 0
-2.659435 -14.056762 0