# vtk DataFile Version 4.0
hesp visualization file
ASCII
DATASET UNSTRUCTURED_GRID
POINTS 1250 double
29.835975 2.5194211 4
29.25648 1.7926674 4
30.788591 2.7918854 4
30.608577 4.1583613 4
30.687697 5.2222549 4
30.6875 6.3419997 4
30.690646 7.4644176 4
30.686326 8.5876966 4
30.68742 9.7107458 4
30.692828 10.830698 4
30.701051 11.949277 4
30.640356 13.089869 4
30.629978 14.224877 4
30.606697 15.349584 4
30.601143 16.476405 4
30.883978 17.442153 4
30.883581 18.565168 4
30.885798 19.691117 4
30.886099 20.814054 4
30.850824 21.883549 4
30.851982 23.007162 4
30.850723 24.127999 4
30.842754 25.239721 4
30.844575 26.359249 4
30.539711 27.519904 4
32.101891 -0.22529685 4
31.568287 3.2884037 4
30.545015 3.5090518 4
30.448754 4.6574663 4
30.446734 5.7793626 4
30.445532 6.904139 4
30.447773 8.0235304 4
30.447806 9.1468611 4
30.443927 10.272929 4
30.43816 11.401346 4
30.477946 12.486389 4
30.494298 13.606745 4
30.509635 14.71958 4
30.517187 15.841401 4
30.410259 17.324926 4
30.367948 18.343262 4
30.368041 19.465995 4
30.367516 20.586984 4
30.367802 21.710459 4
30.377461 22.859119 4
30.377342 23.98128 4
30.377403 25.104128 4
30.379066 26.231057 4
30.341959 27.161204 4
31.890471 28.75437 4
30.60446 1.7985339 4
31.259705 1.2285684 4
32.348075 2.9743217 4
32.247577 4.0798507 4
32.248541 5.203897 4
32.248152 6.3257428 4
32.248431 7.4486371 4
32.248101 8.5705874 4
32.248238 9.6932626 4
32.248374 10.815923 4
32.248884 11.939178 4
32.244989 13.055581 4
32.245363 14.178625 4
32.243798 15.298634 4
32.243898 16.42125 4
32.268 17.56765 4
32.268026 18.690227 4
32.267744 19.81181 4
32.267729 20.934218 4
32.269131 22.066506 4
32.269178 23.188977 4
32.26913 24.311436 4
32.268596 25.43412 4
32.258056 26.542612 4
31.11462 27.457107 4
33.451006 -0.77510483 4
31.721668 2.7370559 4
31.747511 3.675905 4
31.629131 4.6028591 4
31.629155 5.7250487 4
31.629139 6.8475408 4
31.629152 7.9700061 4
31.629136 9.0924659 4
31.629143 10.21493 4
31.629151 11.33742 4
31.629176 12.459888 4
31.629035 13.582478 4
31.629044 14.704919 4
31.629013 15.827528 4
31.629013 16.949941 4
31.647048 18.119183 4
31.646912 19.241296 4
31.647697 20.365613 4
31.64775 21.488213 4
31.636971 22.583483 4
31.637044 23.706168 4
31.636972 24.82841 4
31.635797 25.947612 4
31.630834 27.067784 4
32.062076 28.967889 4
32.831993 1.7849666 4
33.376403 1.8278403 4
32.866428 2.9845076 4
32.825243 4.1742669 4
32.82453 5.2981014 4
32.824679 6.4202675 4
32.824605 7.5428766 4
32.824694 8.6651619 4
32.824658 9.7876946 4
32.824658 10.910157 4
32.824512 12.032909 4
32.825582 13.153248 4
32.825485 14.275902 4
32.825927 15.39749 4
32.825894 16.520018 4
32.815534 17.664268 4
32.815534 18.78673 4
32.815375 19.909534 4
32.815371 21.032006 4
32.818714 22.147355 4
32.818714 23.269817 4
32.818714 24.392281 4
32.819217 25.513692 4
32.852617 26.577941 4
33.253475 27.352755 4
32.97254 0.88795148 4
33.789518 3.0523137 4
33.758351 3.645836 4
33.802736 4.7201246 4
33.803509 5.8416253 4
33.803346 6.9642791 4
33.803426 8.0866459 4
33.803329 9.2092224 4
33.803368 10.331639 4
33.803368 11.454101 4
33.803528 12.576374 4
33.802353 13.700211 4
33.802455 14.82255 4
33.801974 15.945577 4
33.802007 17.067995 4
33.813459 18.177014 4
33.813459 19.299475 4
33.813633 20.421714 4
33.813637 21.54417 4
33.80997 22.671275 4
33.809969 23.793737 4
33.80997 24.916198 4
33.809416 26.039348 4
33.773259 27.204471 4
32.958043 28.179864 4
34.286316 1.726233 4
34.084424 2.1284932 4
34.075963 3.3375113 4
34.07562 4.4676119 4
34.075614 5.5901741 4
34.075615 6.7126359 4
34.075614 7.8350981 4
34.075615 8.95756 4
34.075615 10.080022 4
34.075615 11.202484 4
34.075614 12.324946 4
34.075619 13.447407 4
34.075619 14.569868 4
34.075621 15.69233 4
34.07562 16.814793 4
34.075602 17.936302 4
34.075602 19.058764 4
34.075601 20.181226 4
34.075601 21.303688 4
34.075618 22.426144 4
34.075618 23.548606 4
34.075618 24.671069 4
34.07562 25.793531 4
34.076006 26.909062 4
34.130828 27.780663 4
35.409961 0.70128236 4
35.245608 2.4388686 4
35.193078 3.3894337 4
35.192878 4.5063875 4
35.192876 5.6287771 4
35.192876 6.7512391 4
35.192876 7.8737011 4
35.192876 8.9961632 4
35.192876 10.118625 4
35.192876 11.241087 4
35.192876 12.363549 4
35.192876 13.486011 4
35.192876 14.608474 4
35.192876 15.730935 4
35.192876 16.853397 4
35.192897 17.976574 4
35.192897 19.099036 4
35.192897 20.221498 4
35.192897 21.34396 4
35.192897 22.466422 4
35.192897 23.588884 4
35.192897 24.711346 4
35.192897 25.833807 4
35.193071 26.961307 4
35.150002 28.250668 4
35.400972 1.1221658 4
35.783926 2.1352149 4
35.419172 3.3659279 4
35.419623 4.4887319 4
35.419628 5.6111986 4
35.419628 6.7336606 4
35.419628 7.8561227 4
35.419628 8.9785847 4
35.419628 10.101047 4
35.419628 11.223509 4
35.419628 12.345971 4
35.419628 13.468433 4
35.419628 14.590895 4
35.419628 15.713357 4
35.419628 16.835819 4
35.419573 17.958236 4
35.419573 19.080698 4
35.419573 20.20316 4
35.419573 21.325622 4
35.419573 22.448084 4
35.419573 23.570547 4
35.419573 24.693009 4
35.419573 25.815471 4
35.419126 26.937622 4
35.401695 28.060729 4
36.524619 1.1234375 4
36.524616 2.2449296 4
36.52462 3.367386 4
36.52462 4.4898482 4
36.52462 5.6123102 4
36.52462 6.7347723 4
36.52462 7.8572343 4
36.52462 8.9796964 4
36.52462 10.102158 4
36.52462 11.22462 4
36.52462 12.347083 4
36.52462 13.469545 4
36.52462 14.592007 4
36.52462 15.714469 4
36.52462 16.836931 4
36.52462 17.959393 4
36.52462 19.081855 4
36.52462 20.204317 4
36.52462 21.326779 4
36.52462 22.449241 4
36.52462 23.571703 4
36.52462 24.694165 4
36.52462 25.816627 4
36.52462 26.939083 4
36.52462 28.060576 4
37.647083 1.1234375 4
37.647083 2.2449299 4
37.647083 3.3673861 4
37.647083 4.4898482 4
37.647083 5.6123102 4
37.647083 6.7347723 4
37.647083 7.8572343 4
37.647083 8.9796964 4
37.647083 10.102158 4
37.647083 11.22462 4
37.647083 12.347083 4
37.647083 13.469545 4
37.647083 14.592007 4
37.647083 15.714469 4
37.647083 16.836931 4
37.647083 17.959393 4
37.647083 19.081855 4
37.647083 20.204317 4
37.647083 21.326779 4
37.647083 22.449241 4
37.647083 23.571703 4
37.647083 24.694165 4
37.647083 25.816627 4
37.647083 26.939083 4
37.647083 28.060576 4
38.769545 1.1234375 4
38.769545 2.2449299 4
38.769545 3.3673861 4
38.769545 4.4898482 4
38.769545 5.6123102 4
38.769545 6.7347723 4
38.769545 7.8572343 4
38.769545 8.9796964 4
38.769545 10.102158 4
38.769545 11.22462 4
38.769545 12.347083 4
38.769545 13.469545 4
38.769545 14.592007 4
38.769545 15.714469 4
38.769545 16.836931 4
38.769545 17.959393 4
38.769545 19.081855 4
38.769545 20.204317 4
38.769545 21.326779 4
38.769545 22.449241 4
38.769545 23.571703 4
38.769545 24.694165 4
38.769545 25.816627 4
38.769545 26.939083 4
38.769545 28.060576 4
39.892007 1.1234375 4
39.892007 2.2449299 4
39.892007 3.3673861 4
39.892007 4.4898482 4
39.892007 5.6123102 4
39.892007 6.7347723 4
39.892007 7.8572343 4
39.892007 8.9796964 4
39.892007 10.102158 4
39.892007 11.22462 4
39.892007 12.347083 4
39.892007 13.469545 4
39.892007 14.592007 4
39.892007 15.714469 4
39.892007 16.836931 4
39.892007 17.959393 4
39.892007 19.081855 4
39.892007 20.204317 4
39.892007 21.326779 4
39.892007 22.449241 4
39.892007 23.571703 4
39.892007 24.694165 4
39.892007 25.816627 4
39.892007 26.939083 4
39.892007 28.060576 4
41.014469 1.1234375 4
41.014469 2.2449299 4
41.014469 3.3673861 4
41.014469 4.4898482 4
41.014469 5.6123102 4
41.014469 6.7347723 4
41.014469 7.8572343 4
41.014469 8.9796964 4
41.014469 10.102158 4
41.014469 11.22462 4
41.014469 12.347083 4
41.014469 13.469545 4
41.014469 14.592007 4
41.014469 15.714469 4
41.014469 16.836931 4
41.014469 17.959393 4
41.014469 19.081855 4
41.014469 20.204317 4
41.014469 21.326779 4
41.014469 22.449241 4
41.014469 23.571703 4
41.014469 24.694165 4
41.014469 25.816627 4
41.014469 26.939083 4
41.014469 28.060576 4
42.136931 1.1234375 4
42.136931 2.2449299 4
42.136931 3.3673861 4
42.136931 4.4898482 4
42.136931 5.6123102 4
42.136931 6.7347723 4
42.136931 7.8572343 4
42.136931 8.9796964 4
42.136931 10.102158 4
42.136931 11.22462 4
42.136931 12.347083 4
42.136931 13.469545 4
42.136931 14.592007 4
42.136931 15.714469 4
42.136931 16.836931 4
42.136931 17.959393 4
42.136931 19.081855 4
42.136931 20.204317 4
42.136931 21.326779 4
42.136931 22.449241 4
42.136931 23.571703 4
42.136931 24.694165 4
42.136931 25.816627 4
42.136931 26.939083 4
42.136931 28.060576 4
43.259393 1.1234375 4
43.259393 2.2449299 4
43.259393 3.3673861 4
43.259393 4.4898482 4
43.259393 5.6123102 4
43.259393 6.7347723 4
43.259393 7.8572343 4
43.259393 8.9796964 4
43.259393 10.102158 4
43.259393 11.22462 4
43.259393 12.347083 4
43.259393 13.469545 4
43.259393 14.592007 4
43.259393 15.714469 4
43.259393 16.836931 4
43.259393 17.959393 4
43.259393 19.081855 4
43.259393 20.204317 4
43.259393 21.326779 4
43.259393 22.449241 4
43.259393 23.571703 4
43.259393 24.694165 4
43.259393 25.816627 4
43.259393 26.939083 4
43.259393 28.060576 4
44.381855 1.1234375 4
44.381855 2.2449299 4
44.381855 3.3673861 4
44.381855 4.4898482 4
44.381855 5.6123102 4
44.381855 6.7347723 4
44.381855 7.8572343 4
44.381855 8.9796964 4
44.381855 10.102158 4
44.381855 11.22462 4
44.381855 12.347083 4
44.381855 13.469545 4
44.381855 14.592007 4
44.381855 15.714469 4
44.381855 16.836931 4
44.381855 17.959393 4
44.381855 19.081855 4
44.381855 20.204317 4
44.381855 21.326779 4
44.381855 22.449241 4
44.381855 23.571703 4
44.381855 24.694165 4
44.381855 25.816627 4
44.381855 26.939083 4
44.381855 28.060576 4
45.504317 1.1234375 4
45.504317 2.2449299 4
45.504317 3.3673861 4
45.504317 4.4898482 4
45.504317 5.6123102 4
45.504317 6.7347723 4
45.504317 7.8572343 4
45.504317 8.9796964 4
45.504317 10.102158 4
45.504317 11.22462 4
45.504317 12.347083 4
45.504317 13.469545 4
45.504317 14.592007 4
45.504317 15.714469 4
45.504317 16.836931 4
45.504317 17.959393 4
45.504317 19.081855 4
45.504317 20.204317 4
45.504317 21.326779 4
45.504317 22.449241 4
45.504317 23.571703 4
45.504317 24.694165 4
45.504317 25.816627 4
45.504317 26.939083 4
45.504317 28.060576 4
46.62678 1.1234375 4
46.626779 2.24493 4
46.626779 3.3673862 4
[...]
POINT_DATA 1250
SCALARS m double
LOOKUP_TABLE default
1
1
1
1
1
1
1
1
1
1
1
1
1
1
1
1
1
1
1
1
1
1
1
1
1
1
1
1
1
1
1
1
1
1
1
1
1
1
1
1
1
1
1
1
1
1
1
1
1
1
1
1
1
1
1
1
1
1
1
1
1
1
1
1
1
1
1
1
1
1
1
1
1
1
1
1
1
1
1
1
1
1
1
1
1
1
1
1
1
1
1
1
1
1
1
1
1
1
1
1
1
1
1
1
1
1
1
1
1
1
1
1
1
1
1
1
1
1
1
1
1
1
1
1
1
1
1
1
1
1
1
1
1
1
1
1
1
1
1
1
1
1
1
1
1
1
1
1
1
1
1
1
1
1
1
1
1
1
1
1
1
1
1
1
1
1
1
1
1
1
1
1
1
1
1
1
1
1
1
1
1
1
1
1
1
1
1
1
1
1
1
1
1
1
1
1
1
1
1
1
1
1
1
1
1
1
1
1
1
1
1
1
1
1
1
1
1
1
1
1
1
1
1
1
1
1
1
1
1
1
1
1
1
1
1
1
1
1
1
1
1
1
1
1
1
1
1
1
1
1
1
1
1
1
1
1
1
1
1
1
1
1
1
1
1
1
1
1
1
1
1
1
1
1
1
1
1
1
1
1
1
1
1
1
1
1
1
1
1
1
1
1
1
1
1
1
1
1
1
1
1
1
1
1
1
1
1
1
1
1
1
1
1
1
1
1
1
1
1
1
1
1
1
1
1
1
1
1
1
1
1
1
1
1
1
1
1
1
1
1
1
1
1
1
1
1
1
1
1
1
1
1
1
1
1
1
1
1
1
1
1
1
1
1
1
1
1
1
1
1
1
1
1
1
1
1
1
1
1
1
1
1
1
1
1
1
1
1
1
1
1
1
1
1
1
1
1
1
1
1
1
1
1
1
1
1
1
1
1
1
1
1
1
1
1
1
1
1
1
1
1
1
1
1
1
1
1
1
1
1
1
1
1
1
1
1
1
1
1
1
1
1
1
1
1
1
1
1
1
1
1
1
1
1
1
1
1
1
1
1
1
1
1
1
1
1
1
1
1
1
1
1
1
1
1
1
1
1
1
1
1
1
1
1
1
1
1
1
1
1
1
1
1
1
1
1
1
1
1
1
1
1
1
1
1
1
1
1
1
1
1
1
1
1
1
1
1
1
1
1
1
1
1
1
1
1
1
1
1
1
1
1
1
1
1
1
1
1
1
1
1
1
1
1
1
1
1
1
1
1
1
1
1
1
1
1
1
1
1
1
1
1
1
1
1
1
1
1
1
1
1
1
1
1
1
1
1
1
1
1
1
1
1
1
1
1
1
1
1
1
1
1
1
1
1
1
1
1
1
1
1
1
1
1
1
1
1
1
1
1
1
1
1
1
1
1
1
1
1
1
1
1
1
1
1
1
1
1
1
1
1
1
1
1
1
1
1
1
1
1
1
1
1
1
1
1
1
1
1
1
1
1
1
1
1
1
1
1
1
1
1
1
1
1
1
1
1
1
1
1
1
1
1
1
1
1
1
1
1
1
1
1
1
1
1
1
1
1
1
1
1
1
1
1
1
1
1
1
1
1
1
1
1
1
1
1
1
1
1
1
1
1
1
1
1
1
1
1
1
1
1
1
1
1
1
1
1
1
1
1
1
1
1
1
1
1
1
1
1
1
1
1
1
1
1
1
1
1
1
1
1
1
1
1
1
1
1
1
1
1
1
1
1
1
1
1
1
1
1
1
1
1
1
1
1
1
1
1
1
1
1
1
1
1
1
1
1
1
1
1
1
1
1
1
1
1
1
1
1
1
1
1
1
1
1
1
1
1
1
1
1
1
1
1
1
1
1
1
1
1
1
1
1
1
1
1
1
1
1
1
1
1
1
1
1
1
1
1
1
1
1
1
1
1
1
1
1
1
1
1
1
1
1
1
1
1
1
1
1
1
1
1
1
1
1
1
1
1
1
1
1
1
1
1
1
1
1
1
1
1
1
1
1
1
1
1
1
1
1
1
1
1
1
1
1
1
1
1
1
1
1
1
1
1
1
1
1
1
1
1
1
1
1
1
1
1
1
1
1
1
1
1
1
1
1
1
1
1
1
1
1
1
1
1
1
1
1
1
1
1
1
1
1
1
1
1
1
1
1
1
1
1
1
1
1
1
1
1
1
1
1
1
1
1
1
1
1
1
1
1
1
1
1
1
1
1
1
1
1
1
1
1
1
1
1
1
1
1
1
1
1
1
1
1
1
1
1
1
1
1
1
1
1
1
1
1
1
1
1
1
1
1
1
1
1
1
1
1
1
1
1
1
1
1
1
1
1
1
1
1
1
1
1
1
1
1
1
1
1
1
1
1
1
1
1
1
1
1
1
1
1
1
1
1
1
1
1
1
1
1
1
1
1
1
1
1
1
1
1
1
1
1
1
1
1
1
1
1
1
1
1
1
1
1
1
1
1
1
1
1
1
1
1
1
1
1
1
1
1
1
1
1
1
1
1
1
1
1
1
1
1
1
1
1
1
1
1
1
1
1
1
1
1
1
1
1
1
1
1
1
1
1
1
1
1
1
1
1
1
1
1
1
1
1
1
1
1
1
1
1
1
1
1
1
1
1
1
1
1
1
1
1
1
1
1
1
1
1
1
1
1
1
1
1
1
1
1
1
1
1
1
1
1
1
1
1
1
1
1
1
1
1
1
1
1
1
1
1
1
1
1
1
1
1
1
1
1
1
1
1
1
1
1
1
1
1
1
1
1
1
1
1
1
1
1
1
1
1
1
1
1
1
1
1
1
1
1
1
1
1
1
1
1
1
1
1
1
1
1
1
VECTORS v double
-5.7583051 9.5374402 0
-9.3367076 -3.1798874 0
7.9271428 2.4615126 0
1.8431638 8.5487275 0
5.0585781 6.6747865 0
5.0881364 6.6213627 0
5.176597 6.5755412 0
5.0450278 6.6542206 0
5.0680299 6.6508234 0
5.2508036 6.5210711 0
5.5275602 6.3160919 0
3.5429975 7.4664223 0
3.0551804 7.7911918 0
2.3042645 8.0324015 0
2.0681556 8.1344181 0
8.4359329 -5.43412 0
8.471891 -5.3747299 0
8.4966932 -5.3352077 0
8.5006483 -5.3287181 0
8.0989049 -5.9364474 0
8.0984451 -5.9407573 0
8.0846687 -5.9589808 0
7.9988991 -6.0742913 0
8.0175208 -6.0856575 0
-6.466508 0.72793115 0
8.8418017 -9.0869383 0
-6.0687567 -1.3875189 0
-3.6551163 -10.604898 0
-7.0484308 -9.0821333 0
-7.1018373 -9.0584507 0
-7.1699425 -8.9887707 0
-7.06018 -9.0910296 0
-7.0713336 -9.0727628 0
-7.2380173 -8.9311199 0
-7.4893573 -8.7023716 0
-5.7242577 -10.055699 0
-5.1738506 -10.274375 0
-4.5060438 -10.594462 0
-4.248235 -10.668159 0
-8.7682838 5.0600654 0
-9.2561832 3.9501908 0
-9.2566173 3.9507499 0
-9.2630617 3.9341999 0
-9.2292936 3.993611 0
-9.1136305 4.2795873 0
-9.1143384 4.2771859 0
-9.1115499 4.2827337 0
-9.0950883 4.3249423 0
-11.533856 -5.3913656 0
1.6556595 1.6353427 0
-9.3468584 3.9754977 0
-2.5130822 -9.8465433 0
11.465804 -3.3856105 0
8.916837 -4.2290599 0
8.9274116 -4.2141763 0
8.9239342 -4.2190238 0
8.9264594 -4.2155077 0
8.923472 -4.2196704 0
8.9247215 -4.2179259 0
8.9259755 -4.2162024 0
8.930559 -4.20986 0
8.8948007 -4.261322 0
8.8982956 -4.2560992 0
8.8835603 -4.2783285 0
8.8845091 -4.2769858 0
8.8559111 -4.9124395 0
8.8578797 -4.9065546 0
8.8436955 -4.9459543 0
8.8427469 -4.9485738 0
9.0143778 -4.3801115 0
9.0139763 -4.3831246 0
9.0145374 -4.3797938 0
9.0265274 -4.3189603 0
9.0267096 -4.0649107 0
9.8821829 -3.9609943 0
3.9468879 -13.879579 0
-9.0937541 4.6538403 0
-2.0982868 12.943236 0
-9.9864806 1.0295405 0
-9.9846874 1.0318412 0
-9.9854429 1.0303158 0
-9.9849181 1.03156 0
-9.9855338 1.0301144 0
-9.9852834 1.0307068 0
-9.9850566 1.0314522 0
-9.9840089 1.0339607 0
-9.9902891 1.0207516 0
-9.9897794 1.0217111 0
-9.9916839 1.0187878 0
-9.9919571 1.0175811 0
-9.5247352 2.4217313 0
-9.5280639 2.4127868 0
-9.5086725 2.4627973 0
-9.5073807 2.4663727 0
-9.7762603 1.7094307 0
-9.7744619 1.7152922 0
-9.7762438 1.7095381 0
-9.8058419 1.6162411 0
-9.9716829 1.1842128 0
0.12756349 14.065416 0
-6.6383424 -2.3422372 0
1.6038203 -5.1618214 0
-7.6179626 -7.0671669 0
-8.4591459 -5.8206042 0
-8.4737981 -5.7952717 0
-8.4707463 -5.8006574 0
-8.472267 -5.7979816 0
-8.4704374 -5.8012005 0
-8.471169 -5.7999137 0
-8.4711752 -5.799915 0
-8.4741826 -5.7946172 0
-8.4521413 -5.8332773 0
-8.4541234 -5.829804 0
-8.4450222 -5.8456938 0
-8.4457 -5.8445311 0
-8.6587726 -5.4508311 0
-8.6588117 -5.4508327 0
-8.6620287 -5.4446095 0
-8.6621112 -5.4444397 0
-8.5939253 -5.5738768 0
-8.5939171 -5.5738746 0
-8.5939276 -5.5738476 0
-8.5836136 -5.5929027 0
-7.8994877 -6.670675 0
5.5889332 -7.5999362 0
-9.841947 -2.0385548 0
5.8546537 14.95172 0
7.5499815 5.9184486 0
8.4500485 4.8695159 0
8.4657122 4.8484904 0
8.4624346 4.8527985 0
8.4640624 4.8506592 0
8.4621028 4.853233 0
8.4628864 4.852204 0
8.4628862 4.8522044 0
8.4661039 4.8479734 0
8.4424836 4.8788864 0
8.4446004 4.8761165 0
8.43485 4.8888158 0
8.4356095 4.887836 0
8.664271 4.5819091 0
8.6642791 4.5819066 0
8.6677445 4.5769423 0
8.6678248 4.57682 0
8.5945156 4.6801787 0
8.594514 4.6801765 0
8.5945263 4.6801575 0
8.5833645 4.6955601 0
7.8351457 5.6306507 0
-9.9550972 1.1651126 0
-6.8560313 8.4333676 0
-9.8864831 -1.6532679 0
-10.031374 -0.54570528 0
-10.045293 -0.37640241 0
-10.045853 -0.37430839 0
-10.045747 -0.37435832 0
-10.045799 -0.37433314 0
-10.045737 -0.37436365 0
-10.045762 -0.37435151 0
-10.045762 -0.37435149 0
-10.045865 -0.37430166 0
-10.045105 -0.37467364 0
-10.045173 -0.37465028 0
-10.04486 -0.37479704 0
-10.044883 -0.37477514 0
-10.050758 -0.38964957 0
-10.050748 -0.38963606 0
-10.050834 -0.38961391 0
-10.050836 -0.3896138 0
-10.04885 -0.39026251 0
-10.048854 -0.39026685 0
-10.048854 -0.39026537 0
-10.048535 -0.39036519 0
-10.019572 -0.52811582 0
-8.8811372 -5.1105069 0
7.9463292 -6.5966484 0
-8.0125055 6.8619575 0
-2.9517674 1.6277175 0
-3.1670538 1.233442 0
-3.1695358 1.2281789 0
-3.1695361 1.2281787 0
-3.1695361 1.2281787 0
-3.1695361 1.2281787 0
-3.1695361 1.2281787 0
-3.1695361 1.2281787 0
-3.1695358 1.2281789 0
-3.1695391 1.2281751 0
-3.1695274 1.2282 0
-3.1695405 1.2281728 0
-3.169552 1.2281487 0
-3.1439606 1.2798843 0
-3.1439616 1.2798819 0
-3.1439615 1.2798819 0
-3.1439615 1.2798817 0
-3.1439693 1.2798747 0
-3.1439694 1.2798746 0
-3.1439721 1.2798691 0
-3.1439897 1.279814 0
-2.9318993 1.6388198 0
8.8638145 4.1161749 0
-10.070409 -0.11897234 0
9.1040683 -5.5400391 0
2.9419036 -1.1839206 0
3.1625035 -0.90088353 0
3.1650484 -0.89707682 0
3.1650488 -0.89707656 0
3.1650487 -0.89707652 0
3.1650488 -0.89707658 0
3.1650488 -0.89707656 0
3.1650488 -0.89707657 0
3.1650485 -0.89707671 0
3.1650521 -0.89707396 0
3.1650401 -0.89709199 0
3.1650537 -0.89707232 0
3.1650653 -0.89705546 0
3.1388397 -0.93435027 0
3.1388405 -0.93434938 0
3.1388404 -0.93434938 0
3.1388405 -0.93434931 0
3.1388495 -0.93434431 0
3.1388496 -0.93434424 0
3.1388524 -0.93434027 0
3.1388696 -0.93430429 0
2.9214959 -1.1912147 0
-10.041601 0.00788715 0
-10.00008 0.0041624385 0
-10.000743 -5.2100055e-05 0
-10.000048 -1.3145214e-05 0
-10.000037 -7.7995495e-07 0
-10.000036 7.3781512e-08 0
-10.000036 7.4030196e-08 0
-10.000036 7.4030188e-08 0
-10.000036 7.4030193e-08 0
-10.000036 7.4030189e-08 0
-10.000036 7.4030172e-08 0
-10.000036 7.4030514e-08 0
-10.000036 7.4028245e-08 0
-10.000036 7.4034251e-08 0
-10.000036 7.4029847e-08 0
-10.000036 7.0916802e-08 0
-10.000036 7.9722775e-08 0
-10.000036 7.7256198e-08 0
-10.000036 7.7256979e-08 0
-10.000036 7.7257571e-08 0
-10.000036 7.7255951e-08 0
-10.000036 7.7256262e-08 0
-10.000036 7.739696e-08 0
-10.000036 1.3355831e-07 0
-10.000035 -2.1781613e-05 0
-10.000025 -0.0041563219 0
-10.000001 0.0041549743 0
-10.000002 2.0851374e-05 0
-10.000001 -5.0080055e-07 0
-10 5.0590235e-10 0
-10 6.2386947e-10 0
-10 6.339424e-10 0
-10 6.3393503e-10 0
-10 6.3393386e-10 0
-10 6.3393782e-10 0
-10 6.3393263e-10 0
-10 6.3393524e-10 0
-10 6.3393513e-10 0
-10 6.3332753e-10 0
-10 6.3331737e-10 0
-10 6.330562e-10 0
-10 6.6038696e-10 0
-10 6.615635e-10 0
-10 6.6156686e-10 0
-10 6.6156763e-10 0
-10 6.6156519e-10 0
-10 6.612951e-10 0
-10 7.9993773e-10 0
-10 7.9301619e-08 0
-10 -2.0894119e-05 0
-10 -0.0041545748 0
-9.9999999 0.0041545683 0
-9.9999999 2.0888419e-05 0
-9.9999999 -7.8647078e-08 0
-9.9999999 -1.3827784e-10 0
-9.9999998 2.6587234e-13 0
-9.9999998 4.0063948e-16 0
-9.9999998 5.5748098e-17 0
-9.9999998 -1.1096395e-15 0
-9.9999998 3.213793e-15 0
-9.9999998 -1.9715987e-15 0
-9.9999998 4.0806332e-17 0
-9.9999998 2.3898968e-15 0
-9.9999998 -2.3245223e-15 0
-9.9999997 -4.2952227e-17 0
-9.9999997 1.0770423e-16 0
-9.9999997 5.4178021e-13 0
-9.9999997 5.4075439e-13 0
-9.9999997 4.4554346e-15 0
-9.9999997 -2.2379877e-12 0
-9.9999997 5.455861e-13 0
-9.9999997 2.5146831e-12 0
-9.9999997 1.3837002e-10 0
-9.9999997 7.864705e-08 0
-9.9999997 -2.0888419e-05 0
-9.9999997 -0.0041545683 0
-9.9999997 0.0041545683 0
-9.9999997 2.088841e-05 0
-9.9999997 -7.8658022e-08 0
-9.9999997 -1.3037358e-10 0
-9.9999997 1.0794211e-11 0
-9.9999997 -6.769577e-15 0
-9.9999997 -2.7597807e-17 0
-9.9999997 -9.7411615e-16 0
-9.9999997 -2.2403067e-12 0
-9.9999997 -2.2454453e-12 0
-9.9999997 1.328937e-15 0
-9.9999997 3.5004667e-15 0
-9.9999997 6.1400826e-13 0
-9.9999997 6.1623598e-13 0
-9.9999997 6.2739837e-17 0
-9.9999997 5.5433264e-15 0
-9.9999997 -7.6437957e-12 0
-9.9999997 -7.6377452e-12 0
-9.9999997 -1.0987854e-11 0
-9.9999996 -1.0986561e-11 0
-9.9999998 -2.6144563e-13 0
-9.9999998 1.3837012e-10 0
-9.9999998 7.864705e-08 0
-9.9999998 -2.0888419e-05 0
-9.9999998 -0.0041545682 0
-9.9999998 0.0041545682 0
-9.9999998 2.0888423e-05 0
-9.9999997 -7.8643284e-08 0
-9.9999996 -1.383789e-10 0
-9.9999996 2.5883178e-13 0
-9.9999996 2.3783278e-17 0
-9.9999996 1.7716868e-15 0
-9.9999996 1.2471523e-15 0
-9.9999996 3.633282e-15 0
-9.9999996 -1.3753856e-15 0
-9.9999996 -4.0573811e-12 0
-9.9999996 -4.0546938e-12 0
-9.9999996 -1.1613706e-15 0
-9.9999996 -7.737218e-17 0
-9.9999996 1.0529713e-16 0
-9.9999996 2.6141523e-15 0
-9.9999996 -8.5799885e-16 0
-9.9999995 1.6559016e-15 0
-9.9999995 2.2448873e-12 0
-9.9999994 -6.5801327e-12 0
-9.9999994 -9.0937813e-12 0
-9.9999994 1.3837211e-10 0
-9.9999994 7.864705e-08 0
-9.9999994 -2.0888419e-05 0
-9.9999994 -0.0041545682 0
-9.9999994 0.0041545682 0
-9.9999994 2.0888427e-05 0
-9.9999994 -7.8636088e-08 0
-9.9999994 -1.3903177e-10 0
-9.9999994 -2.9260296e-12 0
-9.9999994 2.1900602e-15 0
-9.9999994 -5.0170789e-12 0
-9.9999994 -7.9380207e-12 0
-9.9999994 -9.9631434e-13 0
-9.9999994 1.9175981e-12 0
-9.9999994 8.0717793e-17 0
-9.9999993 -2.1974103e-12 0
-9.9999993 -2.2018223e-12 0
-9.9999993 5.4012682e-15 0
-9.9999993 1.0693036e-14 0
-9.9999993 -2.0803952e-13 0
-9.9999993 2.4046252e-12 0
-9.9999993 2.6191649e-12 0
-9.9999993 1.0990165e-11 0
-9.9999993 1.0993157e-11 0
-9.9999993 -2.7082933e-13 0
-9.9999993 1.3836998e-10 0
-9.9999993 7.8647054e-08 0
-9.9999993 -2.0888428e-05 0
-9.9999993 -0.0041545682 0
-9.9999993 0.0041545682 0
-9.9999993 2.0888415e-05 0
-9.9999993 -7.8650823e-08 0
-9.9999993 -1.3884708e-10 0
-9.9999991 -2.1213191e-13 0
-9.9999991 5.9906738e-16 0
-9.9999991 1.5836393e-15 0
-9.9999991 -1.1470501e-15 0
-9.999999 2.2633461e-15 0
-9.9999991 -3.7623252e-15 0
-9.9999991 4.0573331e-12 0
-9.9999991 3.943007e-12 0
-9.999999 -1.1559353e-13 0
-9.999999 -8.3787993e-12 0
-9.999999 -1.7729105e-11 0
-9.999999 5.6707432e-12 0
-9.999999 1.5067485e-11 0
-9.9999989 5.7229372e-14 0
-9.9999989 6.1453212e-14 0
-9.9999989 6.1149489e-12 0
-9.9999989 5.8506567e-12 0
-9.9999989 1.3843737e-10 0
-9.9999989 7.8647113e-08 0
-9.9999989 -2.0888419e-05 0
-9.9999988 -0.0041545682 0
-9.9999988 0.0041545682 0
-9.9999988 2.0888419e-05 0
-9.9999988 -7.8648093e-08 0
-9.9999988 -1.3622235e-10 0
-9.9999987 3.526614e-12 0
-9.9999987 -4.6942115e-12 0
-9.9999987 3.2435836e-13 0
-9.9999987 8.0046148e-12 0
-9.9999987 3.3127513e-12 0
-9.9999987 3.8764378e-13 0
-9.9999987 6.6030956e-14 0
-9.9999987 2.8080236e-12 0
-9.9999986 2.8125241e-12 0
-9.9999986 6.84654e-14 0
-9.9999985 -4.7824201e-12 0
-9.9999985 -7.752045e-12 0
-9.9999987 2.0693273e-11 0
-9.9999987 1.7170913e-11 0
-9.9999987 1.1958438e-11 0
-9.9999987 2.620277e-12 0
-9.9999987 -1.9957274e-12 0
-9.9999987 1.4598356e-10 0
-9.9999987 7.8668434e-08 0
-9.9999987 -2.0888387e-05 0
-9.9999987 -0.0041545682 0
-9.9999987 0.0041545682 0
-9.9999987 2.0888488e-05 0
-9.9999987 -7.8634763e-08 0
-9.9999987 -1.2556277e-10 0
-9.9999987 1.3050699e-11 0
-9.9999987 1.0910996e-11 0
-9.9999986 9.2894662e-12 0
-9.9999986 9.2869446e-12 0
-9.9999986 1.0967394e-11 0
-9.9999986 1.0961719e-11 0
-9.9999986 1.0964757e-11 0
-9.9999986 1.113941e-11 0
-9.9999987 1.3570314e-12 0
-9.9999987 1.9991024e-11 0
-9.9999987 4.0153649e-11 0
-9.9999981 -2.7149301e-10 0
-9.9999981 4.873284e-07 0
-9.9999981 4.8725356e-07 0
-9.9999981 4.8725313e-07 0
-9.9999981 4.8725313e-07 0
-9.999998 4.8725003e-07 0
-9.9999979 4.8738865e-07 0
-9.9999979 5.6587947e-07 0
-9.9999978 -2.0401135e-05 0
-9.9999978 -0.00415408 0
-9.9999905 0.0041545679 0
-9.9999977 2.1378171e-05 0
-9.9999977 4.0864077e-07 0
-9.9999977 4.8714518e-07 0
-9.9999977 4.8739879e-07 0
-9.9999977 4.8705453e-07 0
-9.9999977 4.8707028e-07 0
-9.9999976 4.8706269e-07 0
-9.9999976 4.870627e-07 0
-9.9999976 4.8706546e-07 0
-9.9999976 4.8707609e-07 0
-9.9999976 4.8691847e-07 0
-9.9999976 4.872444e-07 0
-9.9999976 4.8727553e-07 0
-9.9999976 4.8727596e-07 0
-9.9999976 4.8492488e-07 0
-9.9999971 9.7625828e-07 0
-9.9999971 9.7392893e-07 0
-9.9999971 9.7392462e-07 0
-9.9999971 9.7393181e-07 0
-9.9999971 9.7393521e-07 0
-9.999997 9.7406122e-07 0
-9.999997 1.0522245e-06 0
-9.9999965 -1.9427172e-05 0
-9.9999965 -0.0041531059 0
-9.9999746 0.0041545652 0
-9.9999965 2.2354904e-05 0
-9.9999965 1.3822887e-06 0
-9.9999965 1.4607893e-06 0
-9.9999965 1.4633657e-06 0
-9.9999967 9.7185086e-07 0
-9.9999967 9.7429025e-07 0
-9.9999967 9.7430248e-07 0
-9.9999966 9.7430084e-07 0
-9.9999966 9.7430301e-07 0
-9.9999966 9.7429404e-07 0
-9.9999967 9.7133079e-07 0
-9.9999961 1.463906e-06 0
-9.9999961 1.461718e-06 0
-9.9999961 1.4616997e-06 0
-9.9999961 1.461741e-06 0
-9.999996 1.4620742e-06 0
-9.9999959 1.4619181e-06 0
-9.9999959 1.4619188e-06 0
-9.9999959 1.4619144e-06 0
-9.9999958 1.4619173e-06 0
-9.9999957 1.4620622e-06 0
-9.9999957 1.5404757e-06 0
-9.9999956 -1.9426321e-05 0
-9.9999956 -0.0041531038 0
-9.9999738 0.0041545646 0
-9.9999955 2.2360604e-05 0
-9.9999955 1.3834517e-06 0
-9.9999955 1.4619408e-06 0
-9.9999955 1.4621073e-06 0
-9.9999955 1.4617604e-06 0
-9.9999954 1.4618761e-06 0
-9.9999954 1.4618646e-06 0
-9.9999954 1.4618794e-06 0
-9.9999954 1.461885e-06 0
-9.9999954 1.4618404e-06 0
-9.9999953 1.4532084e-06 0
-9.9999893 5.8528677e-06 0
-9.9999893 5.8440517e-06 0
-9.9999893 5.8440126e-06 0
-9.9999893 5.8440317e-06 0
-9.9999893 5.8440369e-06 0
-9.9999893 5.8440328e-06 0
-9.9999893 5.843558e-06 0
-9.9999892 5.8445728e-06 0
-9.9999892 5.8446515e-06 0
-9.9999892 5.8447873e-06 0
-9.9999891 5.9218265e-06 0
-9.9999885 -1.4555459e-05 0
-9.9999885 -0.004148232 0
-9.9998935 0.0041545539 0
-9.9999885 2.724687e-05 0
-9.9999884 6.252857e-06 0
-9.9999884 6.3312358e-06 0
-9.9999878 6.8184829e-06 0
-9.9999878 6.8186081e-06 0
-9.9999878 6.8186213e-06 0
-9.9999879 6.8185179e-06 0
-9.9999873 7.3057641e-06 0
-9.9999873 7.3056484e-06 0
-9.9999873 7.3056478e-06 0
-9.9999872 7.3058358e-06 0
-9.9999872 7.3070714e-06 0
-9.9999872 7.3064559e-06 0
-9.9999873 7.3062615e-06 0
-9.9999867 7.7937009e-06 0
-9.9999867 7.793618e-06 0
-9.9999867 7.7935966e-06 0
-9.9999867 7.7865202e-06 0
-9.999984 1.0234716e-05 0
-9.999984 1.0227632e-05 0
-9.9999834 1.0227737e-05 0
-9.9999834 1.0793335e-05 0
-9.9999834 -1.0173483e-05 0
-9.9999834 -0.0041438444 0
-9.9998226 0.0041545481 0
-9.9999833 3.1638792e-05 0
-9.9999828 1.0636077e-05 0
-9.9999828 1.120182e-05 0
-9.9999828 1.120039e-05 0
-9.9999823 1.1690064e-05 0
-9.9999822 1.1688781e-05 0
-9.9999822 1.1688874e-05 0
-9.9999822 1.1688737e-05 0
-9.9999822 1.1689173e-05 0
-9.9999816 1.1689113e-05 0
-9.9999816 1.2176317e-05 0
-9.9999817 1.2176223e-05 0
-9.9999817 1.2176078e-05 0
-9.9999817 1.2174906e-05 0
-9.9999811 1.2664658e-05 0
-9.999981 1.2663263e-05 0
-9.9999804 1.2663232e-05 0
-9.9999804 1.3150247e-05 0
-9.9999804 1.3151242e-05 0
-9.9999804 1.3150547e-05 0
-9.9999804 1.3150707e-05 0
-9.9999804 1.3229606e-05 0
-9.9999804 -7.7373769e-06 0
-9.9999804 -0.0041414059 0
-9.9998048 0.0041547521 0
-10.000005 3.1664857e-05 0
-10.000003 1.1612726e-05 0
-10.000003 1.2177694e-05 0
-10.000003 1.2177079e-05 0
-10.000003 1.2175649e-05 0
-10.000002 1.3151794e-05 0
-10.000001 1.3639337e-05 0
-10 1.4122508e-05 0
-9.9999992 1.5101341e-05 0
-9.9999992 1.5585498e-05 0
-9.9999992 1.5585623e-05 0
-9.9999992 1.5585551e-05 0
-9.9999992 1.5583541e-05 0
-9.9999986 1.607444e-05 0
-9.9999981 1.6072171e-05 0
-9.9999981 1.6559832e-05 0
-9.9999981 1.6559476e-05 0
-9.9999981 1.6559463e-05 0
-9.9999903 1.6559412e-05 0
-9.9999902 1.6559552e-05 0
-9.9999818 1.7044988e-05 0
-9.9999819 1.712333e-05 0
-9.9999819 -3.8668426e-06 0
-9.9999825 -0.0041377126 0
-10.003645 0.0039243079 0
-10.004116 3.8597367e-05 0
-10.004115 1.6987118e-05 0
-10.004115 1.7554163e-05 0
-10.004114 1.8040288e-05 0
-10.004114 1.8039876e-05 0
-10.004114 1.8040648e-05 0
-10.004115 1.755252e-05 0
-10.00413 1.8038895e-05 0
-10.00413 1.8039658e-05 0
-10.004129 1.803865e-05 0
-10.004129 1.8527633e-05 0
-10.004129 1.8526335e-05 0
-10.004129 1.9014862e-05 0
-10.004129 1.9014711e-05 0
-10.004129 1.9014571e-05 0
-10.004128 1.9014449e-05 0
-10.004128 1.9502753e-05 0
-10.004128 1.9502732e-05 0
-10.004128 1.9502345e-05 0
-10.004126 2.0481831e-05 0
-10.004127 2.0478063e-05 0
-10.004119 2.0553015e-05 0
-10.004119 -5.2690206e-07 0
-10.003889 -0.0039038679 0
9.2877135 -3.6710969 0
9.1576128 -6.888373 0
-7.904387 -4.5460822 0
-1.5288902 -8.6289781 0
-1.7548257 -8.5985571 0
-1.8035565 -8.5598203 0
-1.7702034 -8.5985506 0
-1.6558913 -8.6079417 0
-2.0878419 -8.46108 0
-2.5873659 -8.2762695 0
-0.447608 -9.0204007 0
1.7349835 -8.9284206 0
2.3125819 -8.9270883 0
3.1255284 -8.735472 0
-7.4063096 6.182835 0
-8.5105074 5.2276963 0
-8.5043499 5.2392001 0
-8.5287885 5.1968121 0
-8.5198082 5.2158266 0
-8.1236592 5.8487834 0
-8.1359885 5.8297722 0
-8.1119806 5.8691081 0
-8.0451365 5.9621197 0
-8.111328 5.8006881 0
-8.2747552 3.8307471 0
-4.2204013 -5.6228778 0
-0.12655247 6.2390014 0
9.3561795 -3.7151206 0
9.1325811 5.9398438 0
3.3377808 10.754274 0
3.5455621 10.671689 0
3.6194344 10.668918 0
3.5560202 10.665096 0
3.4666993 10.704779 0
3.9129479 10.58892 0
4.4149387 10.427242 0
2.0886554 10.849476 0
0.13333102 10.997347 0
-0.52266215 10.877327 0
-1.2564342 10.75973 0
10.331099 -1.702187 0
9.583302 -3.0482048 0
9.5980283 -2.9988885 0
9.6014523 -2.98813 0
9.401006 -3.6044589 0
9.3915282 -3.6087283 0
9.3754447 -3.6525034 0
9.3070685 -3.8305639 0
9.4845515 -3.3406003 0
0.0011565767 9.8916176 0
8.0199201 -4.1955977 0
6.1847779 6.5219024 0
-6.2635423 8.7039616 0
-8.7239128 4.5670096 0
-8.7377771 4.5419572 0
-8.7342068 4.5476867 0
-8.7469867 4.5244671 0
-8.7323138 4.5511093 0
-8.7391669 4.5385809 0
-8.7623003 4.4950785 0
-8.7814378 4.4607637 0
-8.6123867 4.7645897 0
-8.6294229 4.7345789 0
-8.5696334 4.8383765 0
-8.5318968 4.9079953 0
-8.2598857 -1.1462847 0
-8.0136503 -3.528327 0
-6.5883792 -5.6160815 0
-2.3360982 10.731109 0