# vtk DataFile Version 4.0
hesp visualization file
ASCII
DATASET UNSTRUCTURED_GRID
POINTS 1250 double
29.17437 2.7878315 4
28.952076 2.1075372 4
30.995192 2.9615801 4
30.580069 4.9911756 4
30.917024 5.4502498 4
30.938394 6.5714505 4
30.963401 7.6913053 4
30.922338 8.8180991 4
30.926554 9.9394165 4
30.990917 11.058224 4
31.082131 12.191772 4
30.552941 13.550871 4
30.52181 14.739637 4
30.799485 15.570159 4
30.786628 17.210437 4
31.610557 17.345454 4
31.001671 18.763716 4
31.024778 19.866559 4
31.114684 21.07813 4
30.646413 21.869876 4
30.89987 23.167385 4
30.880954 24.280284 4
30.783662 25.337701 4
30.808262 26.471075 4
29.955432 27.580721 4
32.897659 -1.0431164 4
30.960786 3.3116795 4
30.628739 2.5895672 4
29.906799 3.7642305 4
29.806152 4.9678265 4
29.799175 6.0978123 4
29.811796 7.207098 4
29.810064 8.333516 4
29.792373 9.4702191 4
29.764974 10.61731 4
30.317473 11.916691 4
30.040998 12.675381 4
30.351191 13.744258 4
29.892783 14.994447 4
30.415409 17.028551 4
29.917635 18.461957 4
29.785654 19.13493 4
29.763854 20.269633 4
30.357109 21.6316 4
30.501669 22.562536 4
30.525831 23.704572 4
30.615572 24.929153 4
30.352615 25.857348 4
29.126271 27.03064 4
32.008789 28.862161 4
29.763507 2.1568226 4
31.024273 0.35549708 4
32.12115 2.9780537 4
31.929105 3.3674659 4
31.927466 4.4913676 4
31.929547 5.6119379 4
31.928618 6.7362441 4
31.92971 7.8565458 4
31.929244 8.9799312 4
31.928593 10.103758 4
31.926973 11.229429 4
31.940164 12.326356 4
31.938808 13.451393 4
31.944355 14.563522 4
31.944046 15.686549 4
32.026503 16.671109 4
32.025362 17.794927 4
32.035641 18.905425 4
32.036229 20.02719 4
31.915182 21.345345 4
31.913695 22.465882 4
31.913444 23.588944 4
31.905043 24.732068 4
31.965912 26.299178 4
32.010563 27.391999 4
33.80622 -2.0242629 4
31.719959 3.1500086 4
31.558752 4.8393689 4
30.911922 4.6378304 4
30.954357 6.1919883 4
30.935567 7.3078588 4
30.921661 8.428874 4
30.946368 9.55488 4
30.9456 10.678716 4
30.903523 11.790415 4
30.843475 12.880655 4
31.123521 13.89191 4
31.145695 14.969275 4
31.016623 16.244627 4
30.75971 16.648395 4
31.344973 17.594449 4
31.396265 18.775567 4
31.435839 19.930341 4
31.722541 21.187694 4
31.437435 22.042531 4
31.453444 23.17157 4
31.534142 24.336909 4
31.50983 25.433671 4
30.726409 26.882436 4
32.10442 30.272888 4
32.235574 1.574107 4
33.521678 1.3668954 4
33.388961 2.2553892 4
33.184334 3.9819686 4
33.185681 5.1102116 4
33.184364 6.2327958 4
33.18559 7.3545544 4
33.184152 8.4778215 4
33.184767 9.5999177 4
33.185665 10.721366 4
33.187789 11.842757 4
33.170535 12.974433 4
33.172307 14.095884 4
33.165127 15.22191 4
33.165521 16.344259 4
33.074218 17.626792 4
33.075557 18.748461 4
33.063138 19.879347 4
33.062463 21.002219 4
33.212648 21.97496 4
33.212463 23.097686 4
33.212708 24.219845 4
33.222996 25.324536 4
33.1795 25.976464 4
33.152466 27.171171 4
32.086755 0.70465534 4
33.061674 3.1226884 4
34.093134 4.6588526 4
34.559822 5.1621229 4
34.561432 6.2837933 4
34.561091 7.4064641 4
34.56126 8.528822 4
34.561057 9.6514093 4
34.561138 10.773821 4
34.561138 11.896283 4
34.561473 13.01854 4
34.558983 14.142602 4
34.559207 15.264907 4
34.558162 16.388092 4
34.558231 17.510511 4
34.57928 18.626469 4
34.57928 19.748936 4
34.579481 20.871597 4
34.579488 21.994057 4
34.57438 23.114449 4
34.57438 24.236909 4
34.57438 25.359372 4
34.573333 26.48192 4
34.492915 27.658091 4
32.06193 28.284942 4
33.69208 2.478406 4
33.220135 1.7681661 4
34.720361 4.0677292 4
33.176165 4.4269155 4
33.175934 5.5485565 4
33.175825 6.6714032 4
33.17588 7.7936776 4
33.175814 8.9163646 4
33.17584 10.038737 4
33.175842 11.161202 4
33.175951 12.283287 4
33.175196 13.408352 4
33.175262 14.530584 4
33.174972 15.654053 4
33.17501 16.776406 4
33.186409 17.863456 4
33.186395 18.985965 4
33.186817 20.107588 4
33.186813 21.230045 4
33.180676 22.366169 4
33.180676 23.488619 4
33.180675 24.611086 4
33.24688 25.614262 4
33.765906 26.356626 4
33.320431 27.373399 4
36.124388 0.11119424 4
34.524605 3.0567967 4
34.31796 3.607912 4
34.363268 4.681332 4
34.309548 5.7906284 4
34.309551 6.9130861 4
34.30955 8.0355511 4
34.309551 9.1580094 4
34.309551 10.280473 4
34.309551 11.402935 4
34.309548 12.525403 4
34.309566 13.647819 4
34.309564 14.770287 4
34.309571 15.892726 4
34.30957 17.015185 4
34.310479 18.145761 4
34.310482 19.268227 4
34.310482 20.390689 4
34.310482 21.513151 4
34.310504 22.635566 4
34.310503 23.758029 4
34.310503 24.880491 4
34.310496 26.002936 4
34.319886 27.178681 4
35.731311 29.010811 4
34.495492 1.1080331 4
36.601941 1.6278657 4
35.626717 2.8758396 4
35.539302 4.0986109 4
35.538288 5.2225431 4
35.538288 6.3450054 4
35.538288 7.4674674 4
35.538288 8.5899295 4
35.538288 9.7123915 4
35.538288 10.834854 4
35.538288 11.957316 4
35.538288 13.079779 4
35.538293 14.202234 4
35.538287 15.324703 4
35.538283 16.447173 4
35.548394 17.555376 4
35.548394 18.677838 4
35.548394 19.8003 4
35.548394 20.922762 4
35.548393 22.045226 4
35.548393 23.167688 4
35.548392 24.290152 4
35.548381 25.412631 4
35.629702 26.444889 4
34.724133 27.672648 4
35.624554 1.123871 4
35.625804 2.2536706 4
36.289146 3.6829806 4
36.38708 4.7489011 4
36.388212 5.8704759 4
36.388212 6.9929379 4
36.388212 8.1154 4
36.388212 9.237862 4
36.388212 10.360324 4
36.388212 11.482786 4
36.388212 12.605248 4
36.388213 13.72771 4
36.388207 14.850176 4
36.388213 15.972633 4
36.388217 17.095092 4
36.376911 18.226137 4
36.376911 19.348599 4
36.376911 20.471061 4
36.376911 21.593523 4
36.376913 22.715984 4
36.376913 23.838446 4
36.376914 24.960907 4
36.376917 26.083372 4
36.285768 27.25597 4
35.624524 28.060238 4
36.747042 1.1239038 4
36.747013 2.2448647 4
36.747015 3.3674072 4
36.746925 4.4899019 4
36.746923 5.6123644 4
36.746923 6.7348264 4
36.746923 7.8572885 4
36.746923 8.9797505 4
36.746923 10.102213 4
36.746923 11.224675 4
36.746923 12.347137 4
36.746923 13.469599 4
36.746923 14.592061 4
36.746923 15.714523 4
36.746923 16.836985 4
36.746941 17.959441 4
36.746941 19.081903 4
36.746941 20.204365 4
36.746941 21.326827 4
36.746941 22.449289 4
36.746941 23.571751 4
36.746941 24.694213 4
36.74694 25.816675 4
36.747017 26.939099 4
36.74708 28.060164 4
37.869544 1.1238474 4
37.869544 2.2449318 4
37.869544 3.3673861 4
37.869544 4.4898482 4
37.869544 5.6123102 4
37.869544 6.7347723 4
37.869544 7.8572343 4
37.869544 8.9796964 4
37.869544 10.102158 4
37.869544 11.22462 4
37.869544 12.347083 4
37.869544 13.469545 4
37.869544 14.592007 4
37.869544 15.714469 4
37.869544 16.836931 4
37.869544 17.959393 4
37.869544 19.081855 4
37.869544 20.204317 4
37.869544 21.326779 4
37.869544 22.449241 4
37.869544 23.571703 4
37.869544 24.694165 4
37.869544 25.816627 4
37.869544 26.939081 4
37.869545 28.060166 4
38.992007 1.1238473 4
38.992007 2.2449318 4
38.992007 3.3673861 4
38.992007 4.4898482 4
38.992007 5.6123102 4
38.992007 6.7347723 4
38.992007 7.8572343 4
38.992007 8.9796964 4
38.992007 10.102158 4
38.992007 11.22462 4
38.992007 12.347083 4
38.992007 13.469545 4
38.992007 14.592007 4
38.992007 15.714469 4
38.992007 16.836931 4
38.992007 17.959393 4
38.992007 19.081855 4
38.992007 20.204317 4
38.992007 21.326779 4
38.992007 22.449241 4
38.992007 23.571703 4
38.992007 24.694165 4
38.992007 25.816627 4
38.992007 26.939081 4
38.992007 28.060166 4
40.114469 1.1238473 4
40.114469 2.2449318 4
40.114469 3.3673861 4
40.114469 4.4898482 4
40.114469 5.6123102 4
40.114469 6.7347723 4
40.114469 7.8572343 4
40.114469 8.9796964 4
40.114469 10.102158 4
40.114469 11.22462 4
40.114469 12.347083 4
40.114469 13.469545 4
40.114469 14.592007 4
40.114469 15.714469 4
40.114469 16.836931 4
40.114469 17.959393 4
40.114469 19.081855 4
40.114469 20.204317 4
40.114469 21.326779 4
40.114469 22.449241 4
40.114469 23.571703 4
40.114469 24.694165 4
40.114469 25.816627 4
40.114469 26.939081 4
40.114469 28.060166 4
41.236931 1.1238473 4
41.236931 2.2449318 4
41.236931 3.3673861 4
41.236931 4.4898482 4
41.236931 5.6123102 4
41.236931 6.7347723 4
41.236931 7.8572343 4
41.236931 8.9796964 4
41.236931 10.102158 4
41.236931 11.22462 4
41.236931 12.347083 4
41.236931 13.469545 4
41.236931 14.592007 4
41.236931 15.714469 4
41.236931 16.836931 4
41.236931 17.959393 4
41.236931 19.081855 4
41.236931 20.204317 4
41.236931 21.326779 4
41.236931 22.449241 4
41.236931 23.571703 4
41.236931 24.694165 4
41.236931 25.816627 4
41.236931 26.939081 4
41.236931 28.060166 4
42.359393 1.1238473 4
42.359393 2.2449318 4
42.359393 3.3673861 4
42.359393 4.4898482 4
42.359393 5.6123102 4
42.359393 6.7347723 4
42.359393 7.8572343 4
42.359393 8.9796964 4
42.359393 10.102158 4
42.359393 11.22462 4
42.359393 12.347083 4
42.359393 13.469545 4
42.359393 14.592007 4
42.359393 15.714469 4
42.359393 16.836931 4
42.359393 17.959393 4
42.359393 19.081855 4
42.359393 20.204317 4
42.359393 21.326779 4
42.359393 22.449241 4
42.359393 23.571703 4
42.359393 24.694165 4
42.359393 25.816627 4
42.359393 26.939081 4
42.359393 28.060166 4
43.481855 1.1238473 4
43.481855 2.2449318 4
43.481855 3.3673861 4
43.481855 4.4898482 4
43.481855 5.6123102 4
43.481855 6.7347723 4
43.481855 7.8572343 4
43.481855 8.9796964 4
43.481855 10.102158 4
43.481855 11.22462 4
43.481855 12.347083 4
43.481855 13.469545 4
43.481855 14.592007 4
43.481855 15.714469 4
43.481855 16.836931 4
43.481855 17.959393 4
43.481855 19.081855 4
43.481855 20.204317 4
43.481855 21.326779 4
43.481855 22.449241 4
43.481855 23.571703 4
43.481855 24.694165 4
43.481855 25.816627 4
43.481855 26.939081 4
43.481855 28.060166 4
44.604317 1.1238473 4
44.604317 2.2449318 4
44.604317 3.3673861 4
44.604317 4.4898482 4
44.604317 5.6123102 4
44.604317 6.7347723 4
44.604317 7.8572343 4
44.604317 8.9796964 4
44.604317 10.102158 4
44.604317 11.22462 4
44.604317 12.347083 4
44.604317 13.469545 4
44.604317 14.592007 4
44.604317 15.714469 4
44.604317 16.836931 4
44.604317 17.959393 4
44.604317 19.081855 4
44.604317 20.204317 4
44.604317 21.326779 4
44.604317 22.449241 4
44.604317 23.571703 4
44.604318 24.694165 4
44.604318 25.816627 4
44.604318 26.939082 4
44.604318 28.060166 4
45.726781 1.1238473 4
45.72678 2.2449319 4
45.72678 3.3673862 4
[...]
POINT_DATA 1250
SCALARS m double
LOOKUP_TABLE default
1
1
1
1
1
1
1
1
1
1
1
1
1
1
1
1
1
1
1
1
1
1
1
1
1
1
1
1
1
1
1
1
1
1
1
1
1
1
1
1
1
1
1
1
1
1
1
1
1
1
1
1
1
1
1
1
1
1
1
1
1
1
1
1
1
1
1
1
1
1
1
1
1
1
1
1
1
1
1
1
1
1
1
1
1
1
1
1
1
1
1
1
1
1
1
1
1
1
1
1
1
1
1
1
1
1
1
1
1
1
1
1
1
1
1
1
1
1
1
1
1
1
1
1
1
1
1
1
1
1
1
1
1
1
1
1
1
1
1
1
1
1
1
1
1
1
1
1
1
1
1
1
1
1
1
1
1
1
1
1
1
1
1
1
1
1
1
1
1
1
1
1
1
1
1
1
1
1
1
1
1
1
1
1
1
1
1
1
1
1
1
1
1
1
1
1
1
1
1
1
1
1
1
1
1
1
1
1
1
1
1
1
1
1
1
1
1
1
1
1
1
1
1
1
1
1
1
1
1
1
1
1
1
1
1
1
1
1
1
1
1
1
1
1
1
1
1
1
1
1
1
1
1
1
1
1
1
1
1
1
1
1
1
1
1
1
1
1
1
1
1
1
1
1
1
1
1
1
1
1
1
1
1
1
1
1
1
1
1
1
1
1
1
1
1
1
1
1
1
1
1
1
1
1
1
1
1
1
1
1
1
1
1
1
1
1
1
1
1
1
1
1
1
1
1
1
1
1
1
1
1
1
1
1
1
1
1
1
1
1
1
1
1
1
1
1
1
1
1
1
1
1
1
1
1
1
1
1
1
1
1
1
1
1
1
1
1
1
1
1
1
1
1
1
1
1
1
1
1
1
1
1
1
1
1
1
1
1
1
1
1
1
1
1
1
1
1
1
1
1
1
1
1
1
1
1
1
1
1
1
1
1
1
1
1
1
1
1
1
1
1
1
1
1
1
1
1
1
1
1
1
1
1
1
1
1
1
1
1
1
1
1
1
1
1
1
1
1
1
1
1
1
1
1
1
1
1
1
1
1
1
1
1
1
1
1
1
1
1
1
1
1
1
1
1
1
1
1
1
1
1
1
1
1
1
1
1
1
1
1
1
1
1
1
1
1
1
1
1
1
1
1
1
1
1
1
1
1
1
1
1
1
1
1
1
1
1
1
1
1
1
1
1
1
1
1
1
1
1
1
1
1
1
1
1
1
1
1
1
1
1
1
1
1
1
1
1
1
1
1
1
1
1
1
1
1
1
1
1
1
1
1
1
1
1
1
1
1
1
1
1
1
1
1
1
1
1
1
1
1
1
1
1
1
1
1
1
1
1
1
1
1
1
1
1
1
1
1
1
1
1
1
1
1
1
1
1
1
1
1
1
1
1
1
1
1
1
1
1
1
1
1
1
1
1
1
1
1
1
1
1
1
1
1
1
1
1
1
1
1
1
1
1
1
1
1
1
1
1
1
1
1
1
1
1
1
1
1
1
1
1
1
1
1
1
1
1
1
1
1
1
1
1
1
1
1
1
1
1
1
1
1
1
1
1
1
1
1
1
1
1
1
1
1
1
1
1
1
1
1
1
1
1
1
1
1
1
1
1
1
1
1
1
1
1
1
1
1
1
1
1
1
1
1
1
1
1
1
1
1
1
1
1
1
1
1
1
1
1
1
1
1
1
1
1
1
1
1
1
1
1
1
1
1
1
1
1
1
1
1
1
1
1
1
1
1
1
1
1
1
1
1
1
1
1
1
1
1
1
1
1
1
1
1
1
1
1
1
1
1
1
1
1
1
1
1
1
1
1
1
1
1
1
1
1
1
1
1
1
1
1
1
1
1
1
1
1
1
1
1
1
1
1
1
1
1
1
1
1
1
1
1
1
1
1
1
1
1
1
1
1
1
1
1
1
1
1
1
1
1
1
1
1
1
1
1
1
1
1
1
1
1
1
1
1
1
1
1
1
1
1
1
1
1
1
1
1
1
1
1
1
1
1
1
1
1
1
1
1
1
1
1
1
1
1
1
1
1
1
1
1
1
1
1
1
1
1
1
1
1
1
1
1
1
1
1
1
1
1
1
1
1
1
1
1
1
1
1
1
1
1
1
1
1
1
1
1
1
1
1
1
1
1
1
1
1
1
1
1
1
1
1
1
1
1
1
1
1
1
1
1
1
1
1
1
1
1
1
1
1
1
1
1
1
1
1
1
1
1
1
1
1
1
1
1
1
1
1
1
1
1
1
1
1
1
1
1
1
1
1
1
1
1
1
1
1
1
1
1
1
1
1
1
1
1
1
1
1
1
1
1
1
1
1
1
1
1
1
1
1
1
1
1
1
1
1
1
1
1
1
1
1
1
1
1
1
1
1
1
1
1
1
1
1
1
1
1
1
1
1
1
1
1
1
1
1
1
1
1
1
1
1
1
1
1
1
1
1
1
1
1
1
1
1
1
1
1
1
1
1
1
1
1
1
1
1
1
1
1
1
1
1
1
1
1
1
1
1
1
1
1
1
1
1
1
1
1
1
1
1
1
1
1
1
1
1
1
1
1
1
1
1
1
1
1
1
1
1
1
1
1
1
1
1
1
1
1
1
1
1
1
1
1
1
1
1
1
1
1
1
1
1
1
1
1
1
1
1
1
1
1
1
1
1
1
1
1
1
1
1
1
1
1
1
1
1
1
1
1
1
1
1
1
1
1
1
1
1
1
1
1
1
1
1
1
1
1
1
1
1
1
1
1
1
1
1
1
1
1
1
1
1
1
1
1
1
1
1
1
1
1
1
1
1
1
1
1
1
1
1
1
1
1
1
1
1
1
1
1
1
VECTORS v double
-7.6006568 0.47144597 0
3.9582553 2.6149251 0
7.7533761 5.5658223 0
-6.6810143 11.331003 0
-1.3812082 -4.093728 0
-0.84533825 -4.076363 0
-0.32440617 -4.017473 0
-1.2096974 -4.1021222 0
-1.1335486 -4.1073914 0
0.28475305 -3.9028251 0
2.2583207 -3.1507687 0
-9.4949023 0.23201903 0
-9.9590277 2.1615458 0
-3.1110161 -5.0163339 0
1.9288622 8.1516888 0
7.7875359 2.4276714 0
-9.3968392 3.3651576 0
-9.6827079 1.5913034 0
-1.3179057 8.3529731 0
-8.9357316 3.5293934 0
-4.4365391 6.9178669 0
-4.7667844 6.7695442 0
-6.4032938 5.7848284 0
-5.9314883 6.1140325 0
-6.4964774 0.66644822 0
8.8419272 -9.0868874 0
-7.5972284 2.0338056 0
-3.0370066 -13.481786 0
-5.2584427 -10.613538 0
-7.1203399 -8.9545445 0
-7.2034086 -8.9079606 0
-7.0759441 -9.0441154 0
-7.1039464 -8.9817206 0
-7.2502945 -8.8954223 0
-7.4654897 -8.7344011 0
10.52803 5.3221441 0
-4.9823377 -10.375586 0
6.0609506 -11.776009 0
-5.8297798 -13.228238 0
4.7854646 -7.6849933 0
-0.31438106 10.455744 0
-4.7233504 -8.3032733 0
-5.1301914 -8.0622814 0
6.8469509 8.7554599 0
6.7806898 -7.2122293 0
7.1799245 -6.8605901 0
8.6767219 -5.0677482 0
4.3355533 -8.6388194 0
-16.069841 3.384846 0
1.3187652 1.1891163 0
-9.3442488 3.9858213 0
-2.7147939 -9.4399127 0
-5.7152496 0.87521596 0
-7.4779698 -9.1230688 0
-7.568801 -9.0792589 0
-7.4792789 -9.1125432 0
-7.4908111 -9.0906787 0
-7.4772162 -9.115967 0
-7.4830212 -9.1050775 0
-7.4919839 -9.0876463 0
-7.5119924 -9.0504864 0
-7.3471817 -9.349694 0
-7.3642592 -9.3188909 0
-7.2944942 -9.4403515 0
-7.2980341 -9.4337307 0
-6.0278199 -11.438761 0
-6.045161 -11.425737 0
-5.9007184 -11.577491 0
-5.8934968 -11.586654 0
-5.729774 -7.6206133 0
-7.6069113 -9.0734632 0
-7.6108315 -9.0662557 0
-7.7355489 -8.7967673 0
-7.4014809 -2.2345582 0
10.004683 0.62134015 0
3.9467467 -13.879473 0
8.3468611 4.0851765 0
-2.0445584 12.917806 0
-1.6713649 -1.674009 0
-3.5846073 11.853083 0
-4.0790032 11.741828 0
-4.5177894 11.636604 0
-3.7665941 11.804019 0
-3.8072103 11.806409 0
-5.0391892 11.451115 0
-6.7802105 10.497233 0
2.9947779 8.2030653 0
3.8566669 6.7605334 0
-0.73790531 11.601192 0
-9.4179811 -6.7725567 0
0.69354864 -11.301978 0
7.6743724 -6.3641493 0
8.9966877 -4.465067 0
5.5883714 -8.4821405 0
2.7751035 -11.135584 0
3.0415164 -11.026569 0
4.5491237 -10.206795 0
4.113783 -10.543369 0
-10.095101 -3.4498321 0
0.47115736 14.495015 0
-6.6259049 -2.3435513 0
1.6148491 -5.0584942 0
6.5398631 2.2498444 0
7.9601337 -0.90966192 0
7.9667205 -0.86103931 0
7.9542418 -0.85051049 0
7.9667532 -0.86596403 0
7.9521028 -0.84803372 0
7.9584114 -0.85591008 0
7.9683921 -0.87208184 0
7.9897219 -0.8974708 0
7.8123953 -0.6884004 0
7.8310267 -0.71033808 0
7.7560243 -0.62717362 0
7.7597907 -0.63098903 0
5.5367432 -0.17976422 0
5.5631403 -0.19122205 0
5.2683295 -0.13865244 0
5.2575207 -0.12917975 0
8.0608821 -0.784957 0
8.0580627 -0.78119522 0
8.0618068 -0.78560731 0
8.1871329 -1.1836888 0
1.2022643 5.284257 0
-10.377324 -1.2760806 0
-9.8437218 -2.0358266 0
-9.670408 -0.82869935 0
-11.280343 10.806271 0
8.4075633 4.833709 0
8.4193304 4.8440422 0
8.4174626 4.8439704 0
8.4183947 4.8440048 0
8.4172728 4.8439627 0
8.4177216 4.8439766 0
8.4177195 4.8439797 0
8.4195683 4.844055 0
8.405666 4.8447931 0
8.4069607 4.8445569 0
8.4009692 4.8457126 0
8.401294 4.8455006 0
8.4993411 4.9513376 0
8.4993478 4.9514323 0
8.4994074 4.9572991 0
8.4994266 4.957328 0
8.4878608 4.8624258 0
8.4878555 4.8624119 0
8.4878079 4.862467 0
8.4788281 4.8527316 0
0.33539239 3.924192 0
-9.96173 1.1802166 0
-6.569549 8.245404 0
-7.2196614 -15.090951 0
10.160913 7.2379143 0
-9.9858202 -0.50527731 0
-10.00082 -0.51428243 0
-10.002161 -0.50894361 0
-10.001379 -0.51129048 0
-10.002307 -0.50848773 0
-10.001934 -0.50954187 0
-10.001719 -0.50906676 0
-10.00021 -0.51421235 0
-10.010896 -0.48165056 0
-10.0099 -0.48463285 0
-10.014026 -0.47186586 0
-10.012912 -0.47585253 0
-9.176465 0.39136544 0
-9.1857156 0.39146962 0
-9.0479235 0.44881203 0
-9.0456086 0.44695389 0
-9.9545207 -0.78234964 0
-9.9545794 -0.78268482 0
-9.9545498 -0.78195054 0
-2.6147111 -14.378157 0
2.4369517 -11.252714 0
-5.7340755 0.087901705 0
7.9372967 -6.5514521 0
-8.0145157 6.878455 0
-9.8100605 2.5654189 0
4.3036913 4.8319097 0
-9.8902969 1.8725502 0
-9.8902162 1.872416 0
-9.8902424 1.8725465 0
-9.8902119 1.8723792 0
-9.8902253 1.87244 0
-9.8902253 1.8724438 0
-9.8902695 1.8727297 0
-9.8899031 1.8705627 0
-9.8899458 1.8706851 0
-9.889793 1.8697115 0
-9.8898013 1.8696614 0
-9.8820307 1.9688301 0
-9.8818949 1.9693632 0
-9.881903 1.9692961 0
-9.8819267 1.9693001 0
-9.8815023 1.9685564 0
-9.8815463 1.9685994 0
-9.8815658 1.9686073 0
-9.8832492 1.9690823 0
-9.7770481 2.4935407 0
6.2747834 8.8224797 0
-10.05944 -0.15978915 0
9.0641897 -5.693736 0
-5.5784193 -9.2687982 0
-7.4796286 -7.3824602 0
-7.50151 -7.354425 0
-7.5015032 -7.3544085 0
-7.5015027 -7.3544075 0
-7.5015025 -7.3544079 0
-7.5015024 -7.3544078 0
-7.5015024 -7.3544079 0
-7.5015016 -7.354409 0
-7.5015178 -7.3543886 0
-7.5014127 -7.3545189 0
-7.501525 -7.3543759 0
-7.5016214 -7.3542303 0
-7.2838285 -7.6230608 0
-7.2838076 -7.623089 0
-7.2838077 -7.6230895 0
-7.2838083 -7.6230891 0
-7.2838401 -7.6230516 0
-7.2838347 -7.6230502 0
-7.283858 -7.6230215 0
-7.2840699 -7.6226025 0
-5.5115214 -9.3161192 0
0.4340764 -3.89679 0
-10.000208 0.0053742239 0
-9.9555724 0.15309941 0
5.339136 7.3162257 0
7.3663727 5.9090623 0
7.3897534 5.8877003 0
7.3897566 5.8876999 0
7.3897568 5.8876997 0
7.3897566 5.8877 0
7.3897566 5.8876999 0
7.3897565 5.8877 0
7.3897556 5.8877008 0
7.3897736 5.8876847 0
7.3896634 5.8877862 0
7.3897841 5.8876756 0
7.3898285 5.8876335 0
7.1564331 6.0952574 0
7.1564359 6.0952456 0
7.1564358 6.0952456 0
7.1564364 6.0952453 0
7.1564723 6.095216 0
7.1564731 6.0952156 0
7.1564974 6.0951963 0
7.1560015 6.0956569 0
5.2704088 7.3500099 0
-10.002305 -0.0024010034 0
-10.004462 0.013990132 0
-10.004312 -0.0063850001 0
-10.007811 0.0036338215 0
-10.024019 0.0117982 0
-10.024367 0.011962754 0
-10.024367 0.011963035 0
-10.024367 0.011963039 0
-10.024367 0.011963037 0
-10.024367 0.011963037 0
-10.024367 0.011963036 0
-10.024367 0.011963029 0
-10.024367 0.011963173 0
-10.024365 0.011962297 0
-10.024367 0.011963185 0
-10.02437 0.011963251 0
-10.020999 0.010249889 0
-10.021003 0.010248614 0
-10.021003 0.010248588 0
-10.021003 0.010248592 0
-10.021003 0.010248829 0
-10.021003 0.010248836 0
-10.021004 0.010248863 0
-10.021016 0.010247608 0
-10.007658 0.0031987676 0
-10.000198 -0.0051726972 0
-10.000023 0.0049610248 0
-10.000024 1.4968708e-05 0
-10.000013 1.2624834e-06 0
-10.00002 1.0300678e-06 0
-10.00002 4.5372895e-07 0
-10.00002 4.2260012e-07 0
-10.00002 4.2258691e-07 0
-10.00002 4.2258685e-07 0
-10.00002 4.2258691e-07 0
-10.00002 4.2258659e-07 0
-10.00002 4.2418393e-07 0
-10.00002 4.2416294e-07 0
-10.00002 4.2416677e-07 0
-10.00002 4.2264477e-07 0
-10.00002 3.9196171e-07 0
-10.00002 3.5405599e-07 0
-10.00002 4.2268977e-07 0
-10.00002 4.2283429e-07 0
-10.00002 4.2449806e-07 0
-10.00002 4.2451168e-07 0
-10.00002 4.2450989e-07 0
-10.00002 4.2472029e-07 0
-10.00002 3.4561289e-07 0
-10.000014 -2.2746044e-05 0
-10.000004 -0.0049560437 0
-9.9999997 0.0049540612 0
-9.9999996 2.0992426e-05 0
-9.9999996 -1.300367e-07 0
-9.9999996 -1.7492908e-10 0
-9.9999996 2.300748e-11 0
-9.9999996 6.5111181e-12 0
-9.9999996 6.5271525e-12 0
-9.9999996 6.5270036e-12 0
-9.9999996 1.9408622e-12 0
-9.9999996 1.9333342e-12 0
-9.9999996 6.5383992e-12 0
-9.9999996 6.5384375e-12 0
-9.9999996 8.5589616e-12 0
-9.9999995 8.5626267e-12 0
-9.9999995 6.5695303e-12 0
-9.9999995 6.1552401e-12 0
-9.9999995 -5.5275726e-12 0
-9.9999995 -5.7429262e-12 0
-9.9999995 -1.2026811e-11 0
-9.9999995 -1.2028133e-11 0
-9.9999996 5.3064571e-12 0
-9.9999996 1.9733189e-10 0
-9.9999996 1.3003421e-07 0
-9.9999996 -2.1003715e-05 0
-9.9999996 -0.0049540448 0
-9.9999996 0.0049540448 0
-9.9999996 2.1003724e-05 0
-9.9999995 -1.3002132e-07 0
-9.9999995 -1.9138829e-10 0
-9.9999995 6.039724e-13 0
-9.9999995 3.1057708e-16 0
-9.9999995 5.0981194e-15 0
-9.9999995 5.8958569e-15 0
-9.9999995 6.3967008e-15 0
-9.9999994 8.9122559e-16 0
-9.9999994 -7.126789e-12 0
-9.9999994 -7.1226198e-12 0
-9.9999994 3.0672861e-13 0
-9.9999994 3.0502273e-13 0
-9.9999994 1.7153883e-16 0
-9.9999994 3.3466759e-15 0
-9.9999994 1.9900029e-15 0
-9.9999993 -2.8529e-13 0
-9.9999993 4.3510263e-12 0
-9.9999992 -1.1928719e-11 0
-9.9999992 -1.7135911e-11 0
-9.9999992 1.9142967e-10 0
-9.9999992 1.3002678e-07 0
-9.9999992 -2.1003719e-05 0
-9.9999992 -0.0049540448 0
-9.9999992 0.0049540448 0
-9.9999992 2.1003732e-05 0
-9.9999992 -1.3000906e-07 0
-9.9999992 -1.9362837e-10 0
-9.9999992 -6.678854e-12 0
-9.9999992 6.8841838e-15 0
-9.9999992 -8.3824238e-12 0
-9.9999992 -1.3973224e-11 0
-9.9999992 -6.0823132e-13 0
-9.9999992 4.9717124e-12 0
-9.9999992 3.2148344e-16 0
-9.9999991 -4.5683432e-12 0
-9.9999991 -4.573313e-12 0
-9.9999991 1.2969295e-14 0
-9.9999991 2.3414538e-14 0
-9.9999991 -1.2395293e-12 0
-9.9999991 2.0588217e-12 0
-9.9999991 3.303698e-12 0
-9.9999991 1.7942029e-11 0
-9.9999991 1.7948453e-11 0
-9.999999 -6.2806442e-13 0
-9.999999 1.9137171e-10 0
-9.999999 1.3002679e-07 0
-9.999999 -2.1003735e-05 0
-9.999999 -0.0049540448 0
-9.999999 0.0049540448 0
-9.999999 2.1003714e-05 0
-9.999999 -1.3003225e-07 0
-9.999999 -1.9318009e-10 0
-9.9999989 -1.667679e-12 0
-9.9999989 -4.7152161e-13 0
-9.9999989 4.498174e-15 0
-9.9999988 -1.2689155e-15 0
-9.9999988 1.5837088e-15 0
-9.9999987 -7.5898346e-15 0
-9.9999987 7.1269437e-12 0
-9.9999987 5.9719714e-12 0
-9.9999987 -1.3766461e-12 0
-9.9999987 -1.2827301e-11 0
-9.9999987 -2.6734135e-11 0
-9.9999987 1.1527726e-11 0
-9.9999986 2.5857774e-11 0
-9.9999985 5.0538053e-13 0
-9.9999985 5.1439033e-13 0
-9.9999985 9.9443166e-12 0
-9.9999985 9.3366662e-12 0
-9.9999985 1.9161261e-10 0
-9.9999985 1.3002701e-07 0
-9.9999985 -2.1003719e-05 0
-9.9999984 -0.0049540448 0
-9.9999984 0.0049540448 0
-9.9999984 2.1003719e-05 0
-9.9999984 -1.3002945e-07 0
-9.9999984 -1.8675453e-10 0
-9.9999984 8.1597827e-12 0
-9.9999983 -7.8143005e-12 0
-9.9999983 5.7410071e-13 0
-9.9999983 1.4216309e-11 0
-9.9999983 5.4905724e-12 0
-9.9999983 -1.0343897e-13 0
-9.9999983 2.3648549e-13 0
-9.9999983 6.7415528e-12 0
-9.9999982 6.7558673e-12 0
-9.9999981 2.4414319e-13 0
-9.9999981 -1.7106783e-11 0
-9.9999979 -2.7344536e-11 0
-9.9999983 6.203987e-11 0
-9.9999983 4.9048095e-11 0
-9.9999983 3.9465388e-11 0
-9.9999983 2.5680358e-11 0
-9.9999983 1.8521122e-11 0
-9.9999983 2.2430374e-10 0
-9.9999983 1.3007851e-07 0
-9.9999983 -2.1003651e-05 0
-9.9999983 -0.0049540447 0
-9.9999983 0.0049540448 0
-9.9999983 2.1003987e-05 0
-9.9999983 -1.2998578e-07 0
-9.9999982 -1.4844833e-10 0
-9.9999982 4.3973091e-11 0
-9.9999982 3.9454429e-11 0
-9.9999982 3.5288308e-11 0
-9.9999982 3.528378e-11 0
-9.9999982 3.9091665e-11 0
-9.9999982 3.9083962e-11 0
-9.9999982 3.908841e-11 0
-9.9999982 4.0364592e-11 0
-9.9999982 2.6606738e-11 0
-9.9999982 5.3028086e-11 0
-9.9999982 8.1588713e-11 0
-9.9999977 -6.3128581e-10 0
-9.9999977 4.8768204e-07 0
-9.9999977 4.8732045e-07 0
-9.9999977 4.8731888e-07 0
-9.9999976 4.8731595e-07 0
-9.9999976 4.873166e-07 0
-9.9999975 4.8750901e-07 0
-9.9999975 6.1730086e-07 0
-9.9999974 -2.051633e-05 0
-9.9999974 -0.0049535563 0
-9.9999901 0.004954044 0
-9.9999973 2.1494944e-05 0
-9.9999973 3.5737255e-07 0
-9.9999973 4.8720488e-07 0
-9.9999973 4.875627e-07 0
-9.9999973 4.870523e-07 0
-9.9999973 4.8707963e-07 0
-9.9999972 4.8706606e-07 0
-9.9999972 4.8706607e-07 0
-9.9999972 4.8707143e-07 0
-9.9999972 4.8708695e-07 0
-9.9999972 4.868573e-07 0
-9.9999972 4.8732946e-07 0
-9.9999971 4.8737517e-07 0
-9.9999972 4.8738871e-07 0
-9.9999972 4.8397665e-07 0
-9.9999967 9.7725126e-07 0
-9.9999966 9.7387046e-07 0
-9.9999966 9.738686e-07 0
-9.9999966 9.7382982e-07 0
-9.9999962 1.4609754e-06 0
-9.9999961 1.4611013e-06 0
-9.9999961 1.5901334e-06 0
-9.9999956 -1.9055107e-05 0
-9.9999956 -0.0049520941 0
-9.9999664 0.0049540397 0
-9.9999955 2.2961231e-05 0
-9.9999956 1.8178288e-06 0
-9.9999956 1.9476479e-06 0
-9.9999956 1.9514535e-06 0
-9.9999956 1.4577885e-06 0
-9.9999956 1.4614057e-06 0
-9.9999956 1.4614217e-06 0
-9.9999956 1.4614181e-06 0
-9.9999956 1.4614228e-06 0
-9.9999956 1.4614101e-06 0
-9.9999956 1.4569545e-06 0
-9.9999951 1.9523245e-06 0
-9.999995 1.9491967e-06 0
-9.999995 1.9491717e-06 0
-9.999995 1.9492313e-06 0
-9.999995 1.9497129e-06 0
-9.9999948 1.9494867e-06 0
-9.9999948 1.9494879e-06 0
-9.9999948 1.949465e-06 0
-9.9999942 2.436563e-06 0
-9.9999942 2.4367431e-06 0
-9.9999941 2.5664286e-06 0
-9.9999941 -1.8566847e-05 0
-9.999994 -0.0049516021 0
-9.9999577 0.0049540387 0
-9.9999939 2.3459378e-05 0
-9.9999939 2.3068264e-06 0
-9.9999939 2.4366177e-06 0
-9.9999939 2.436888e-06 0
-9.9999939 2.4363775e-06 0
-9.9999938 2.4365459e-06 0
-9.9999938 2.436513e-06 0
-9.9999937 2.436569e-06 0
-9.9999937 2.43658e-06 0
-9.9999937 2.4365098e-06 0
-9.9999936 2.4217715e-06 0
-9.9999874 6.8327622e-06 0
-9.9999874 6.8177583e-06 0
-9.9999874 6.8176796e-06 0
-9.9999874 6.8177403e-06 0
-9.9999874 6.8177536e-06 0
-9.9999874 6.8177491e-06 0
-9.9999874 6.817004e-06 0
-9.9999873 6.818595e-06 0
-9.9999873 6.8187147e-06 0
-9.9999873 6.8188983e-06 0
-9.9999872 6.9464462e-06 0
-9.9999867 -1.3695964e-05 0
-9.9999866 -0.0049467313 0
-9.999877 0.0049540207 0
-9.9999866 2.8354681e-05 0
-9.9999859 7.1753745e-06 0
-9.9999859 7.7919649e-06 0
-9.9999853 8.279656e-06 0
-9.9999853 8.2796262e-06 0
-9.9999853 8.2796453e-06 0
-9.9999854 8.2792475e-06 0
-9.9999848 8.7670379e-06 0
-9.9999848 8.7666087e-06 0
-9.9999848 8.766602e-06 0
-9.9999847 8.7669606e-06 0
-9.9999847 8.7690625e-06 0
-9.9999847 8.7680105e-06 0
-9.9999848 8.7674731e-06 0
-9.9999842 9.2555601e-06 0
-9.9999842 9.2551905e-06 0
-9.9999842 9.2551563e-06 0
-9.9999842 9.2440943e-06 0
-9.9999801 1.3160765e-05 0
-9.9999801 1.3149661e-05 0
-9.9999796 1.3149645e-05 0
-9.9999796 1.3766883e-05 0
-9.9999796 -7.366665e-06 0
-9.999979 -0.0049399012 0
-9.9997671 0.0049540108 0
-9.9999788 3.5192296e-05 0
-9.9999783 1.3993464e-05 0
-9.9999783 1.4611064e-05 0
-9.9999783 1.4608586e-05 0
-9.9999773 1.558679e-05 0
-9.9999772 1.5584808e-05 0
-9.9999772 1.5584966e-05 0
-9.9999772 1.5584813e-05 0
-9.9999772 1.5585479e-05 0
-9.9999766 1.5585175e-05 0
-9.9999766 1.6072877e-05 0
-9.9999767 1.6072501e-05 0
-9.9999767 1.607227e-05 0
-9.9999761 1.6557461e-05 0
-9.9999756 1.7048782e-05 0
-9.9999755 1.704661e-05 0
-9.9999749 1.7046405e-05 0
-9.9999749 1.7533519e-05 0
-9.9999749 1.7534927e-05 0
-9.9999749 1.7533875e-05 0
-9.9999748 1.7534126e-05 0
-9.9999748 1.7664722e-05 0
-9.9999748 -3.4688566e-06 0
-9.9999748 -0.0049364851 0
-9.9997342 0.0049543566 0
-10.000001 3.4747214e-05 0
-9.9999996 1.4484877e-05 0
-9.9999991 1.5101118e-05 0
-9.9999986 1.5099924e-05 0
-9.9999982 1.5584456e-05 0
-9.9999976 1.6562246e-05 0
-9.9999964 1.7050053e-05 0
-9.9999958 1.7531228e-05 0
-9.9999947 1.851214e-05 0
-9.9999947 1.8994945e-05 0
-9.9999948 1.8995051e-05 0
-9.9999943 1.8994913e-05 0
-9.9999942 1.9479055e-05 0
-9.9999937 1.9971786e-05 0
-9.9999931 1.996815e-05 0
-9.9999931 2.0456635e-05 0
-9.9999931 2.0455858e-05 0
-9.9999931 2.0455843e-05 0
-9.9999849 2.0455638e-05 0
-9.9999843 2.1429896e-05 0
-9.9999759 2.1915043e-05 0
-9.999976 2.2044422e-05 0
-9.999976 8.7137915e-07 0
-9.9999769 -0.0049324462 0
-10.004321 0.0046796924 0
-10.004909 4.4055231e-05 0
-10.004909 2.1826611e-05 0
-10.004908 2.2444938e-05 0
-10.004908 2.2930967e-05 0
-10.004908 2.2930064e-05 0
-10.004908 2.2931571e-05 0
-10.004908 2.2441736e-05 0
-10.004924 2.2440381e-05 0
-10.004924 2.244063e-05 0
-10.004923 2.2438884e-05 0
-10.004923 2.2929136e-05 0
-10.004923 2.292666e-05 0
-10.004923 2.3416187e-05 0
-10.004923 2.3415679e-05 0
-10.004922 2.3415462e-05 0
-10.004922 2.3415045e-05 0
-10.004922 2.3903999e-05 0
-10.004922 2.3903865e-05 0
-10.004922 2.3902871e-05 0
-10.00492 2.4884243e-05 0
-10.004921 2.4878868e-05 0
-10.004912 2.5002754e-05 0
-10.004913 3.3377359e-06 0
-10.004638 -0.0046548793 0
9.4907563 -4.0757513 0
9.1540926 -6.8169088 0
-7.9045978 -4.5436909 0
6.8853214 -11.263971 0
-9.1817062 1.7634943 0
-9.0887493 0.30066255 0
-9.0339616 -0.046303238 0
-9.0293448 1.0811852 0
-9.1047607 -0.85707571 0
2.0053048 5.4002533 0
-7.8669659 2.39769 0
-2.1995132 9.5093086 0
10.040062 -3.222439 0
2.4241898 -3.2859347 0
-7.3777341 6.1845099 0
-6.1090148 -1.2625945 0
-8.5175363 5.3827616 0
-11.297961 2.0448614 0
-1.9508226 9.1675143 0
-8.2462848 5.6974803 0
-8.0032714 6.021335 0
2.4484735 10.005334 0
0.33313945 5.7693506 0
-8.128056 5.8065878 0
-8.2793965 3.8303091 0
9.0074121 -3.4879551 0
2.1851283 -0.69579881 0
-5.2043254 -2.5921101 0
7.4622461 7.4256951 0
10.835556 0.1854879 0
10.871439 1.5929311 0
10.914411 1.8896996 0
10.989585 0.76110341 0
10.513558 2.8924915 0
-8.1023579 -7.4282243 0
11.889804 -1.2165808 0
7.3498641 -9.8261032 0
-8.0285831 4.8412658 0
2.5196888 -3.7353223 0
-1.2584215 10.769076 0
-7.0253336 -8.005134 0
4.4191306 9.5718854 0
5.1217978 9.227473 0
2.4519761 -8.9871443 0
-3.4926388 9.5912142 0
-6.498362 7.8824214 0
-6.9064219 7.4881632 0
-8.4179976 5.5837208 0
0.59103413 0.89013632 0
-0.18735171 9.5991779 0
8.0193266 -4.1942822 0
5.2898165 8.9833464 0
-6.293279 8.6799423 0
7.6244524 8.3450948 0
7.5900119 8.5067971 0
7.5627037 8.5841978 0
7.5357486 8.6951356 0
7.5656708 8.5720914 0
7.5485189 8.6354788 0
7.3897542 9.104056 0
7.3486403 9.2253626 0
7.6220543 7.8407646 0
7.6174447 7.9705321 0
7.6854567 7.6505899 0
7.6213037 -5.0798259 0
-7.7643548 5.4029582 0
0.41316502 8.8918287 0
9.0202069 3.7412923 0
-2.2612541 3.6518848 0
-6.6369632 8.2637568 0