# vtk DataFile Version 4.0
hesp visualization file
ASCII
DATASET UNSTRUCTURED_GRID
POINTS 1250 double
27.701666 -5.0945981 4
27.299278 -3.3450287 4
31.249208 -3.6497275 4
27.617397 2.8625885 4
30.878689 6.9533777 4
33.542754 3.9564207 4
32.914271 -0.56544614 4
37.381238 11.471108 4
30.191851 12.944569 4
29.451448 9.2442369 4
34.499757 12.018739 4
30.440892 10.956794 4
31.164313 12.385115 4
32.069872 14.229527 4
29.525971 20.374963 4
33.999613 14.548608 4
28.147269 24.884686 4
30.228375 20.520412 4
30.507393 21.849215 4
31.108207 30.569263 4
30.650324 24.185597 4
31.15623 26.202621 4
30.655899 21.519828 4
30.757028 44.584909 4
30.674321 37.312316 4
41.827301 -10.219119 4
26.778742 -2.9382875 4
25.922325 -7.0110845 4
30.264395 2.4725199 4
28.010241 6.7059769 4
27.861352 2.55977 4
26.907696 0.25478415 4
25.663624 3.3188161 4
28.238263 2.7844343 4
27.896215 5.4650582 4
28.797935 10.496334 4
33.771987 9.8389955 4
29.79171 16.038791 4
28.922255 11.835161 4
33.066091 12.096033 4
27.429635 23.033345 4
28.762194 13.297113 4
26.257157 17.818942 4
34.001565 18.704896 4
32.074692 25.104836 4
28.80555 30.585507 4
30.954836 20.394146 4
29.73764 31.72757 4
30.288054 40.611382 4
30.550447 32.793865 4
30.67768 -4.2717328 4
31.062244 -12.234088 4
29.763236 -2.3741305 4
34.710104 3.2290463 4
37.256325 -6.1812331 4
34.578812 3.6798287 4
30.370796 -2.7700707 4
34.940419 10.353144 4
33.799655 11.067101 4
32.506245 10.29655 4
30.066246 7.8922743 4
29.689676 10.113901 4
32.208534 12.19244 4
33.545364 8.3056091 4
32.36998 12.381219 4
33.047707 11.74373 4
31.82092 16.784614 4
36.599312 20.726623 4
30.993692 16.709846 4
28.057235 29.547061 4
28.597123 21.547399 4
36.46175 22.311911 4
30.902332 18.834365 4
34.473673 31.431133 4
32.196019 26.475522 4
37.792345 -16.042345 4
30.216783 -3.3198106 4
31.619066 7.9493125 4
34.514263 -6.5040879 4
26.194812 5.8967268 4
30.286443 8.5203975 4
27.010599 10.084853 4
31.925473 10.321073 4
29.618584 12.164381 4
30.770261 8.8134481 4
30.029915 14.483959 4
32.993012 8.6986271 4
30.031634 15.874887 4
32.589187 18.880475 4
31.199326 12.114808 4
31.927193 18.003489 4
28.658904 15.403546 4
32.893604 13.146021 4
32.392785 19.631603 4
29.641182 21.046421 4
36.399005 13.410602 4
29.502267 23.35048 4
28.243777 26.960352 4
30.020071 28.43611 4
32.580286 44.912823 4
35.336149 -10.96942 4
27.757869 -11.039802 4
34.990041 2.7483536 4
34.016005 6.5944815 4
24.875119 -4.1890545 4
27.456985 6.2171517 4
31.546222 4.8037059 4
27.902091 2.1253806 4
35.644132 8.1423724 4
35.858107 3.6444869 4
31.777292 7.4666872 4
34.55832 5.7550326 4
34.970933 13.201915 4
31.23804 9.8146524 4
34.96508 14.484707 4
37.974528 18.191669 4
32.488483 16.147993 4
30.494194 17.998404 4
31.291077 18.500758 4
36.054456 20.312928 4
32.325962 26.857139 4
34.184833 26.590818 4
36.106138 25.59339 4
32.04709 29.501795 4
30.916872 28.242761 4
28.273661 -8.7396077 4
27.155173 -9.1414655 4
35.977555 8.9828334 4
35.241856 5.8089915 4
31.661095 2.251145 4
34.425931 8.9657676 4
31.39044 7.5455388 4
36.178245 7.0581121 4
34.559602 11.264578 4
37.621435 15.575293 4
34.39206 15.14551 4
35.870615 15.915344 4
31.590683 20.186326 4
39.203083 16.314755 4
30.092668 13.62023 4
33.637839 24.368222 4
32.751486 20.627659 4
33.888995 23.68702 4
35.083315 27.318085 4
36.435416 29.738368 4
31.325133 30.931008 4
32.374711 19.92351 4
30.10831 29.171101 4
35.856658 36.296946 4
26.979911 30.636732 4
31.371538 2.2564632 4
26.019273 -13.413274 4
35.48888 1.405872 4
30.961204 -2.1952503 4
31.014446 -0.22322131 4
29.829927 6.3095045 4
30.371151 5.7172554 4
32.92235 9.1064737 4
31.513774 10.348686 4
28.026329 10.564855 4
36.663111 11.423056 4
30.894728 13.462204 4
31.113891 11.459089 4
34.10978 16.607796 4
31.224363 16.795366 4
27.95225 15.946737 4
30.563807 19.82148 4
29.241384 21.390832 4
34.401327 27.080826 4
32.616457 21.886424 4
30.591933 24.636095 4
31.781831 26.746764 4
32.40457 29.910421 4
33.413319 25.431343 4
26.554158 35.119836 4
44.123786 -6.4849545 4
31.029854 -0.78715323 4
32.826094 -6.0201644 4
32.374422 5.8289969 4
34.091743 10.430103 4
28.211236 -6.1698633 4
35.104362 7.8959909 4
26.041045 7.3590356 4
36.268318 5.9202725 4
37.254752 8.166107 4
32.536698 13.007392 4
30.319812 14.264589 4
35.117363 21.395299 4
33.626132 11.491077 4
36.844124 15.426098 4
33.995132 19.014627 4
35.968775 15.589461 4
30.597623 22.8991 4
35.830815 21.383567 4
28.740581 21.735938 4
31.891834 20.829369 4
28.828766 32.558659 4
34.051989 30.436368 4
33.315184 29.983347 4
42.068743 37.920751 4
32.106406 5.0353934 4
32.208308 3.6367006 4
32.840893 0.73132682 4
33.009052 -7.9165814 4
30.42901 1.8228678 4
30.599062 3.8477238 4
34.605406 4.7695575 4
35.775794 10.356135 4
34.986916 10.954684 4
35.243389 12.005316 4
32.945684 16.955207 4
32.660866 19.328865 4
31.013651 14.60704 4
31.408738 14.367051 4
34.901938 21.846149 4
37.815122 18.833103 4
31.499051 13.193804 4
31.774866 10.908083 4
31.666792 14.4728 4
35.645775 18.451509 4
35.957464 25.210594 4
36.598971 28.58331 4
33.871788 22.365251 4
35.983907 31.644901 4
32.809609 28.355312 4
33.351294 -1.2743843 4
26.375073 -3.4873847 4
35.771995 -0.7524896 4
34.130107 10.965553 4
31.736631 4.0192532 4
34.231809 8.0214008 4
35.117899 7.254568 4
37.860187 8.5364081 4
35.805795 13.363267 4
38.753858 10.880249 4
34.243587 12.817053 4
30.896772 12.945227 4
33.056676 18.103256 4
35.547135 12.536844 4
31.978146 16.990438 4
34.077057 19.463474 4
36.213787 19.85856 4
34.537883 26.243902 4
33.450611 20.946484 4
35.090214 24.909155 4
32.540752 24.809581 4
31.991475 25.357319 4
31.052209 29.108589 4
34.226103 31.026416 4
25.770833 32.27906 4
26.891647 -7.0682498 4
32.407425 -0.61275162 4
32.299619 0.56265459 4
29.077734 -1.2089962 4
40.170882 4.9811551 4
34.209924 3.1061637 4
35.38432 7.3121739 4
35.18032 3.2611429 4
36.443276 8.7160862 4
36.249364 10.437782 4
34.730974 15.454146 4
37.745993 13.881039 4
40.754071 11.869519 4
39.290359 10.086886 4
31.46234 17.018046 4
31.358096 18.24127 4
35.841362 14.668172 4
30.934863 20.908728 4
34.531219 19.840189 4
36.366506 22.754843 4
36.716401 27.070701 4
32.77961 21.380724 4
34.645594 23.175325 4
30.357096 29.500821 4
29.329825 33.361351 4
38.061263 -11.009371 4
28.754539 -1.3013306 4
30.328781 4.9105728 4
37.684139 5.3146528 4
34.820817 6.0180695 4
41.087007 5.7449603 4
35.590713 6.1695599 4
31.778584 9.9020508 4
36.582125 11.870392 4
32.150781 11.106539 4
34.746688 13.805559 4
32.493228 13.295019 4
35.259453 18.072268 4
32.397132 14.286585 4
37.992282 21.968188 4
36.137689 21.340219 4
33.767277 19.998171 4
34.016942 21.742612 4
32.927175 22.642569 4
33.141948 19.721179 4
33.92243 25.185319 4
35.131032 24.174658 4
30.28887 30.85957 4
30.243141 35.620296 4
40.043311 37.131178 4
33.733119 -2.9096563 4
34.376285 2.349765 4
33.481439 1.3907976 4
29.910585 4.9011724 4
34.335189 4.6699667 4
35.975792 -0.2392539 4
37.210187 7.191747 4
37.409565 10.571093 4
38.059898 9.5677376 4
33.01067 10.675305 4
36.434177 9.9900661 4
34.457591 13.477273 4
34.657957 16.001458 4
32.430682 15.004083 4
33.99837 16.148532 4
48.252164 16.515745 4
35.513777 23.275209 4
34.962553 23.375842 4
33.050338 22.266343 4
38.010551 29.861149 4
35.746258 29.429378 4
36.508912 26.491487 4
37.261877 28.186682 4
34.294423 34.851281 4
32.594016 36.026244 4
34.671173 -5.4636004 4
33.207578 -0.044404946 4
36.219679 3.6188214 4
33.615309 5.2953166 4
31.661863 1.4489205 4
38.469709 7.7396501 4
33.485843 5.9488222 4
37.490496 8.9042367 4
35.190849 6.6004685 4
34.032061 7.5231911 4
37.767914 10.495231 4
35.207271 12.706604 4
31.671151 14.97274 4
37.421865 14.092433 4
38.660746 18.343417 4
36.112943 14.707199 4
39.111603 16.797565 4
37.096318 17.13127 4
34.754469 17.72458 4
36.975476 22.131765 4
37.183788 22.83641 4
34.484931 23.491665 4
34.80142 24.941259 4
38.528341 32.78037 4
34.418726 33.604312 4
37.154423 2.7019068 4
34.584793 -7.0970782 4
35.434708 3.0778119 4
33.538247 2.1160211 4
33.933532 3.7512051 4
36.701216 6.46134 4
35.087109 4.7445409 4
33.011384 7.6314283 4
35.654754 13.876929 4
36.88737 8.5786078 4
35.150009 15.306761 4
35.050355 12.273521 4
38.846205 15.945769 4
35.637823 16.232877 4
34.748995 19.275015 4
33.75658 18.77103 4
36.506892 19.15184 4
37.410498 21.117182 4
35.530853 22.886632 4
35.760093 25.753387 4
35.288732 25.153492 4
32.864937 29.124089 4
36.762733 21.117021 4
34.793236 32.601787 4
37.603285 30.209374 4
34.305051 0.24470124 4
36.515559 -0.59453031 4
34.095822 1.8620584 4
33.295652 5.1920305 4
35.663845 4.8813728 4
37.847048 9.0457231 4
36.47192 12.221123 4
37.966154 12.621704 4
37.10423 11.265993 4
38.505606 13.64018 4
36.058798 16.431519 4
37.761626 15.832856 4
35.248189 18.918338 4
40.032451 18.73456 4
36.299945 18.408848 4
40.607908 18.089202 4
36.559462 18.068431 4
36.554039 18.656963 4
39.970424 16.269213 4
38.108099 19.443386 4
37.625547 20.267199 4
37.93273 28.572579 4
38.301627 31.41054 4
32.495617 26.644686 4
31.412387 31.856525 4
37.141099 0.45542832 4
36.921664 2.0906931 4
34.715882 -0.23043571 4
37.055817 3.7898411 4
35.654201 5.274095 4
36.322607 7.9035955 4
40.453007 10.631307 4
36.235705 6.2383059 4
34.889739 8.2418473 4
37.153241 11.888699 4
33.312688 15.705877 4
36.594839 10.70661 4
34.978331 13.691137 4
36.903023 17.951512 4
37.472355 17.047959 4
36.548803 15.944775 4
35.644073 17.203396 4
35.508124 20.243371 4
37.781236 21.179518 4
35.625274 24.130081 4
36.052422 24.685727 4
35.645154 24.69392 4
36.85852 25.33718 4
32.119335 31.918885 4
34.056135 29.625043 4
37.431683 1.1945192 4
37.670285 1.282229 4
36.621196 2.4932674 4
37.058496 3.0885136 4
37.951564 5.392033 4
36.635022 5.9307892 4
38.500179 8.0485265 4
37.456097 10.020903 4
36.647171 11.020798 4
38.268779 13.778126 4
37.077618 14.523749 4
37.912407 15.305448 4
39.356216 14.388712 4
37.095675 17.64797 4
35.608586 17.841905 4
39.431384 22.461007 4
36.927421 19.72908 4
36.982973 20.597715 4
37.305514 22.228251 4
40.122454 22.166106 4
37.475826 23.967766 4
37.638033 22.650956 4
35.583109 26.471202 4
37.665601 24.792033 4
37.346345 30.621983 4
36.668948 -0.90457876 4
[...]
POINT_DATA 1250
SCALARS m double
LOOKUP_TABLE default
1
1
1
1
1
1
1
1
1
1
1
1
1
1
1
1
1
1
1
1
1
1
1
1
1
1
1
1
1
1
1
1
1
1
1
1
1
1
1
1
1
1
1
1
1
1
1
1
1
1
1
1
1
1
1
1
1
1
1
1
1
1
1
1
1
1
1
1
1
1
1
1
1
1
1
1
1
1
1
1
1
1
1
1
1
1
1
1
1
1
1
1
1
1
1
1
1
1
1
1
1
1
1
1
1
1
1
1
1
1
1
1
1
1
1
1
1
1
1
1
1
1
1
1
1
1
1
1
1
1
1
1
1
1
1
1
1
1
1
1
1
1
1
1
1
1
1
1
1
1
1
1
1
1
1
1
1
1
1
1
1
1
1
1
1
1
1
1
1
1
1
1
1
1
1
1
1
1
1
1
1
1
1
1
1
1
1
1
1
1
1
1
1
1
1
1
1
1
1
1
1
1
1
1
1
1
1
1
1
1
1
1
1
1
1
1
1
1
1
1
1
1
1
1
1
1
1
1
1
1
1
1
1
1
1
1
1
1
1
1
1
1
1
1
1
1
1
1
1
1
1
1
1
1
1
1
1
1
1
1
1
1
1
1
1
1
1
1
1
1
1
1
1
1
1
1
1
1
1
1
1
1
1
1
1
1
1
1
1
1
1
1
1
1
1
1
1
1
1
1
1
1
1
1
1
1
1
1
1
1
1
1
1
1
1
1
1
1
1
1
1
1
1
1
1
1
1
1
1
1
1
1
1
1
1
1
1
1
1
1
1
1
1
1
1
1
1
1
1
1
1
1
1
1
1
1
1
1
1
1
1
1
1
1
1
1
1
1
1
1
1
1
1
1
1
1
1
1
1
1
1
1
1
1
1
1
1
1
1
1
1
1
1
1
1
1
1
1
1
1
1
1
1
1
1
1
1
1
1
1
1
1
1
1
1
1
1
1
1
1
1
1
1
1
1
1
1
1
1
1
1
1
1
1
1
1
1
1
1
1
1
1
1
1
1
1
1
1
1
1
1
1
1
1
1
1
1
1
1
1
1
1
1
1
1
1
1
1
1
1
1
1
1
1
1
1
1
1
1
1
1
1
1
1
1
1
1
1
1
1
1
1
1
1
1
1
1
1
1
1
1
1
1
1
1
1
1
1
1
1
1
1
1
1
1
1
1
1
1
1
1
1
1
1
1
1
1
1
1
1
1
1
1
1
1
1
1
1
1
1
1
1
1
1
1
1
1
1
1
1
1
1
1
1
1
1
1
1
1
1
1
1
1
1
1
1
1
1
1
1
1
1
1
1
1
1
1
1
1
1
1
1
1
1
1
1
1
1
1
1
1
1
1
1
1
1
1
1
1
1
1
1
1
1
1
1
1
1
1
1
1
1
1
1
1
1
1
1
1
1
1
1
1
1
1
1
1
1
1
1
1
1
1
1
1
1
1
1
1
1
1
1
1
1
1
1
1
1
1
1
1
1
1
1
1
1
1
1
1
1
1
1
1
1
1
1
1
1
1
1
1
1
1
1
1
1
1
1
1
1
1
1
1
1
1
1
1
1
1
1
1
1
1
1
1
1
1
1
1
1
1
1
1
1
1
1
1
1
1
1
1
1
1
1
1
1
1
1
1
1
1
1
1
1
1
1
1
1
1
1
1
1
1
1
1
1
1
1
1
1
1
1
1
1
1
1
1
1
1
1
1
1
1
1
1
1
1
1
1
1
1
1
1
1
1
1
1
1
1
1
1
1
1
1
1
1
1
1
1
1
1
1
1
1
1
1
1
1
1
1
1
1
1
1
1
1
1
1
1
1
1
1
1
1
1
1
1
1
1
1
1
1
1
1
1
1
1
1
1
1
1
1
1
1
1
1
1
1
1
1
1
1
1
1
1
1
1
1
1
1
1
1
1
1
1
1
1
1
1
1
1
1
1
1
1
1
1
1
1
1
1
1
1
1
1
1
1
1
1
1
1
1
1
1
1
1
1
1
1
1
1
1
1
1
1
1
1
1
1
1
1
1
1
1
1
1
1
1
1
1
1
1
1
1
1
1
1
1
1
1
1
1
1
1
1
1
1
1
1
1
1
1
1
1
1
1
1
1
1
1
1
1
1
1
1
1
1
1
1
1
1
1
1
1
1
1
1
1
1
1
1
1
1
1
1
1
1
1
1
1
1
1
1
1
1
1
1
1
1
1
1
1
1
1
1
1
1
1
1
1
1
1
1
1
1
1
1
1
1
1
1
1
1
1
1
1
1
1
1
1
1
1
1
1
1
1
1
1
1
1
1
1
1
1
1
1
1
1
1
1
1
1
1
1
1
1
1
1
1
1
1
1
1
1
1
1
1
1
1
1
1
1
1
1
1
1
1
1
1
1
1
1
1
1
1
1
1
1
1
1
1
1
1
1
1
1
1
1
1
1
1
1
1
1
1
1
1
1
1
1
1
1
1
1
1
1
1
1
1
1
1
1
1
1
1
1
1
1
1
1
1
1
1
1
1
1
1
1
1
1
1
1
1
1
1
1
1
1
1
1
1
1
1
1
1
1
1
1
1
1
1
1
1
1
1
1
1
1
1
1
1
1
1
1
1
1
1
1
1
1
1
1
1
1
1
1
1
1
1
1
1
1
1
1
1
1
1
1
1
1
1
1
1
1
1
1
1
1
1
1
1
1
1
1
1
1
1
1
1
1
1
1
1
1
1
1
1
1
1
1
1
1
1
1
1
1
1
1
1
1
1
1
1
1
1
1
1
1
1
1
1
1
1
1
1
1
1
1
1
1
1
1
1
1
1
1
1
1
1
1
1
1
1
1
1
1
1
1
1
1
VECTORS v double
1.661706 -8.8869422 0
3.6659128 -10.05472 0
-1.3173977 -16.166074 0
-6.4578955 -5.3204286 0
6.3356694 7.2728331 0
4.9446395 -7.2401058 0
2.9665746 -23.453677 0
2.9418701 3.609742 0
6.1620573 1.5475802 0
19.764269 -7.4938492 0
-1.8038228 1.0366739 0
2.9274027 0.84444255 0
5.8209484 -9.4795032 0
-7.1749525 3.3141932 0
-0.83472878 10.081436 0
5.768664 -8.1124679 0
-9.120838 6.8296834 0
-6.8905252 -11.38912 0
13.070868 19.587939 0
3.3312702 9.1203424 0
4.784609 -0.93254372 0
-8.802529 4.1847573 0
11.116635 0.98508913 0
0.20848232 22.962119 0
1.7617473 11.109623 0
8.8399697 -9.0826405 0
-0.22053559 -9.6378309 0
-4.7641149 -8.8839069 0
4.1073868 -9.3459426 0
-2.2378273 5.5067036 0
-2.3817849 2.611792 0
-6.5856681 -12.058268 0
15.162614 -28.022947 0
5.2162452 -11.541634 0
4.0487174 -14.066113 0
19.094251 -11.511442 0
9.8343965 -13.889882 0
10.526572 -11.226392 0
7.478795 -1.5354097 0
-7.0287086 0.59362394 0
2.1889665 -7.9119917 0
-10.197518 -0.42076302 0
0.79221363 1.9340821 0
0.30424431 -1.1300319 0
-0.21229527 -2.3721435 0
0.31253868 11.116716 0
6.3244195 2.630155 0
8.2142008 0.95498347 0
1.4688652 13.663989 0
-1.6180865 3.7069554 0
9.077908 -13.315506 0
3.108671 -15.900939 0
4.2632066 -7.216769 0
6.5081285 -6.1904458 0
10.755247 -12.551459 0
9.570122 -13.795487 0
3.808503 -12.675203 0
2.7789722 1.9802488 0
1.4639624 -5.2701199 0
2.8551304 -5.3189397 0
1.5543519 -5.3083835 0
-10.511075 -1.4454066 0
-2.3041202 -4.1729075 0
-1.2686784 -5.5997335 0
-2.1517793 -6.4618158 0
-16.454007 6.5452135 0
-5.5273292 -4.5484132 0
3.0235728 2.2439122 0
6.6339483 4.1617354 0
-5.9143732 16.143742 0
4.6637913 11.08315 0
-0.88381438 3.8607725 0
5.6312599 0.23388542 0
-2.0097483 5.6366078 0
4.0160631 5.8521611 0
3.9466542 -13.879275 0
-3.3959518 -5.0165031 0
-2.4988354 4.5318613 0
5.1170938 -14.867333 0
2.5195902 -1.8158183 0
-9.6686578 -4.0046791 0
7.2522598 -2.1677363 0
10.787979 -5.5807104 0
5.2284413 -14.861446 0
-5.0518312 -9.7775193 0
1.5789816 -2.6248386 0
7.4764214 -3.4377149 0
-1.7628073 -3.7156676 0
6.1456304 -9.9962878 0
-11.434852 -23.587188 0
-20.075244 0.081240672 0
-6.5667244 -7.3911217 0
0.55913101 -2.6983617 0
-0.79226761 -1.415834 0
-5.2341427 10.683095 0
1.2394203 -18.631356 0
-1.1386232 -3.6150038 0
5.420335 2.5354922 0
-1.5723445 8.2195606 0
0.4711383 14.494978 0
3.3724311 -12.746329 0
-5.5576623 -14.755665 0
-6.2975362 -6.7535495 0
16.539519 6.8374964 0
-7.7006283 -8.7276373 0
-10.026151 6.3132795 0
-3.9753328 -11.144667 0
9.3154904 1.9228833 0
7.4425298 -2.358091 0
8.7953947 0.56885208 0
-3.785055 -3.0185243 0
2.8706716 -6.3942163 0
4.2566134 -3.8100381 0
4.5749952 2.3643067 0
2.7016274 8.0788682 0
1.7076095 -2.3964514 0
4.6076984 -13.603388 0
1.9882365 -10.900469 0
1.1438039 1.0903439 0
3.6964828 10.140283 0
-3.6663929 3.5286449 0
2.3823511 8.7738612 0
2.4438942 9.7048577 0
-2.785417 9.4154821 0
6.2051737 1.6164164 0
-2.3604113 -9.0026148 0
0.10165264 -22.492918 0
6.8510236 6.6356843 0
-8.951983 -4.0643261 0
1.2844707 0.094196238 0
21.900571 -13.094665 0
4.295508 -13.408474 0
0.99239455 -9.3652448 0
3.0875215 11.070318 0
6.0877321 -3.3206957 0
6.6056331 6.2230828 0
1.1527988 0.24085532 0
2.567877 -2.7982518 0
4.9014279 0.83888792 0
-1.1939722 -0.61736936 0
0.75920381 -3.4541158 0
-3.0437107 15.409777 0
1.8198165 3.9557199 0
2.006695 8.5952241 0
-1.0089128 10.629732 0
-3.2050656 4.4095944 0
-4.0751148 -2.9049598 0
-7.1865746 2.1968813 0
2.783533 9.3003326 0
15.641295 7.6041208 0
-2.6922622 -15.678756 0
-7.1221573 -15.01762 0
-6.2506282 -14.13409 0
-3.8469265 -9.3982372 0
-1.056985 -7.8699038 0
9.0404126 -6.7073225 0
-6.4248896 -1.1471525 0
3.1419443 -2.3835753 0
0.21107355 -1.9049019 0
0.11005457 1.9987206 0
15.487345 8.6460384 0
6.7638552 1.3527613 0
-0.96550596 -1.6226993 0
-1.080675 -1.8557647 0
-0.86096132 15.64696 0
-2.7963302 -2.767421 0
13.738667 2.4588237 0
-2.9788033 10.191592 0
5.5602757 8.9906473 0
5.9390231 -2.1124115 0
5.0790118 9.9318737 0
-8.848051 4.2433245 0
-10.882201 13.467291 0
-4.9379792 10.940139 0
-2.2969653 10.286633 0
7.9152496 -6.5258364 0
4.1019243 -8.5725172 0
0.10037593 -13.988892 0
-5.6637902 -4.8884047 0
7.9622483 -11.832488 0
-4.6983547 -16.489908 0
4.1442411 6.3257729 0
2.5593447 -6.971014 0
7.2346917 -5.8076859 0
-9.742951 -10.929792 0
9.8821409 5.5608697 0
-1.8904879 6.4700123 0
6.6627367 2.0597272 0
3.3377245 -10.138782 0
-10.635341 -0.09163797 0
-1.922096 -1.5968001 0
6.7168274 4.9404137 0
0.88618988 -7.0427456 0
-5.0550907 0.5636904 0
-3.1947031 -1.1713835 0
-10.082658 -9.5877317 0
-7.8412731 10.760219 0
2.6974827 11.901579 0
2.6413014 -2.1037701 0
6.2745416 8.8214551 0
-3.8765022 6.942015 0
5.824064 -8.8830085 0
-8.7703091 -5.7353271 0
6.020033 -18.671431 0
10.295756 -7.506484 0
-0.91996161 3.6381993 0
-2.5760869 -12.498161 0
-6.1148576 -11.486099 0
4.8795278 8.276386 0
3.7064958 -8.162706 0
-12.44058 1.1051497 0
-2.8839355 2.3299185 0
-17.06753 -2.0041038 0
-3.3384372 2.4895385 0
11.215352 7.9874503 0
-6.991716 -7.2946181 0
0.54125569 0.79602713 0
5.3288381 -13.745724 0
-12.787885 -0.73733002 0
-7.2939067 0.81188785 0
8.1807586 -8.3985399 0
3.8873709 3.7872185 0
-6.2744802 -2.5010847 0
6.3023405 7.0177624 0
6.8675451 12.847632 0
2.7940434 -1.0616405 0
-10.161125 -15.017428 0
3.2668003 -6.0094384 0
-4.8769684 4.1825792 0
-9.3766757 0.44986108 0
-3.2083565 -8.8252489 0
-0.82476778 -0.16373022 0
5.0014952 2.7443713 0
-9.4723394 1.8816808 0
4.2396308 -14.472194 0
-3.4998585 5.5620081 0
-4.2284652 -1.4770925 0
-3.9671449 -8.2767123 0
9.163023 -2.957621 0
4.7879408 6.6330774 0
-9.8881816 -1.5600323 0
-3.6183245 -7.0541318 0
-11.605024 5.8714356 0
-3.7593847 11.961579 0
-3.667748 8.6480664 0
-0.62274926 -3.6429767 0
-5.6201938 11.905627 0
11.579372 5.0552984 0
5.8623207 7.8297152 0
-5.9267948 10.852186 0
-9.3682946 -11.170952 0
-1.536279 -9.2815577 0
-0.6784168 -5.0586778 0
-12.35733 -0.56288929 0
4.9728517 0.088565373 0
0.018170579 -1.5963367 0
-2.1494376 9.8773478 0
-12.385595 -10.964671 0
-1.9847439 -4.0573211 0
-18.409326 -5.1028574 0
-2.4631585 1.8003146 0
-0.17926577 27.703907 0
8.3446744 1.1521881 0
5.2003339 -10.673815 0
-5.3110473 1.8565853 0
-4.0214048 3.3462355 0
2.4341052 -0.81477613 0
-12.596275 4.4218351 0
-7.1269163 3.7458117 0
2.1342557 11.596457 0
-4.939514 2.4297016 0
-14.457104 -4.4634614 0
-1.549099 3.261029 0
-9.282288 2.8578608 0
0.22075226 0.94178874 0
0.8313356 -12.772029 0
-7.615714 -5.6931319 0
-14.402561 -0.43929368 0
1.9764888 7.0680356 0
6.9567941 3.3337255 0
-9.5965995 0.52550072 0
-2.2640082 -2.8721575 0
-5.5447715 -9.5647977 0
-7.8931594 -4.7444637 0
-14.255773 8.4593998 0
14.297973 -0.27244797 0
4.5797268 -7.1960868 0
3.0138375 11.96698 0
-12.045013 -0.47562783 0
3.7773812 5.5508869 0
6.6711402 0.19276568 0
6.7805479 -8.0368977 0
-6.0279203 -0.066810264 0
-6.3605966 1.5289557 0
13.437395 8.0773852 0
-1.9537857 2.3707927 0
-1.6249047 8.207725 0
-2.463096 9.8790672 0
-4.867207 24.851639 0
3.3787136 9.8880359 0
-0.8396409 -7.6406686 0
3.4172426 -0.67008864 0
-6.7895922 0.36880038 0
-8.0597998 0.92754367 0
-5.9877004 0.32127495 0
-5.8953884 -18.606982 0
-0.90408704 4.2678563 0
11.025813 1.8503428 0
8.7104346 0.43095426 0
-10.391381 -1.8535366 0
13.575289 -10.669163 0
-9.7761095 -5.854396 0
-4.1307374 0.82853288 0
-4.3794785 2.2826394 0
-5.2823341 -0.25614038 0
11.979384 -7.2830737 0
-6.2542271 11.634368 0
-5.8405086 2.2827004 0
3.1187635 7.3865317 0
15.702667 5.9502489 0
-0.55712137 5.0700034 0
1.630721 -2.8594226 0
-6.3171739 2.0141945 0
-4.5674782 9.556854 0
4.6986766 19.014353 0
0.34318198 -14.634065 0
3.8293819 -4.6161084 0
-3.3397767 -2.0776269 0
0.91213049 -6.9630325 0
-10.185198 -2.1584928 0
-0.0078257338 -5.5354853 0
-6.7671166 9.8382552 0
-8.9290387 -6.6386079 0
-10.560694 1.1929154 0
-1.7171026 -6.5109342 0
6.2694956 -4.9213771 0
5.1764446 -0.64053203 0
-12.895051 1.864476 0
-0.66933323 4.7069816 0
4.5466212 3.0335118 0
10.44704 -2.0769601 0
-4.870972 19.669117 0
-8.227735 2.5381459 0
13.725362 -4.6166087 0
0.16838439 1.2698683 0
-8.4859672 10.572331 0
-6.5669123 -2.0159226 0
-5.8290883 4.5908158 0
0.92487557 11.821847 0
-2.9845216 14.123604 0
1.2437316 -13.928861 0
-3.0776198 -22.692082 0
-6.9660557 -7.2287351 0
-4.3437188 5.0836109 0
-1.0279049 -4.7801529 0
-7.4230731 -3.9753462 0
-1.9481559 -2.4055534 0
-10.966874 -6.1839769 0
10.071018 7.483373 0
-2.6177502 -10.431777 0
3.6032355 18.298333 0
6.049146 4.9071485 0
4.1453871 -0.41974176 0
-2.7324905 14.142365 0
-3.0967019 -11.879695 0
-7.5218966 2.2262851 0
-6.7491514 -11.659305 0
5.6478152 -4.9242278 0
5.505699 -2.6091834 0
-8.3068079 1.9690218 0
-1.8345563 4.6021213 0
-1.8666145 3.6674915 0
6.2021074 3.1270319 0
-4.032148 9.21307 0
-1.1418585 11.224279 0
-4.5735165 -3.835346 0
4.6761934 -0.74434972 0
-10.492823 -1.2905112 0
-18.040113 1.1668769 0
-6.537283 -3.7194452 0
3.3011478 1.9547858 0
-6.6054225 -11.298425 0
-3.2129319 -0.52263963 0
1.3067552 -0.45342117 0
22.670589 20.369114 0
-12.809152 -2.7003738 0
-1.0889425 7.067615 0
1.1661658 3.1914689 0
-11.341847 6.5980228 0
-13.140596 -9.4549367 0
5.488581 -7.5121932 0
1.8440293 -2.447257 0
-4.5815959 -7.1175068 0
-8.890348 -11.751371 0
4.8060638 0.50871812 0
-10.284882 1.9421841 0
-1.0579235 4.2091508 0
-0.2826783 12.871887 0
-4.2308542 -5.7242668 0
-9.8954579 3.2424772 0
8.0635753 -6.6897459 0
-3.6883115 3.6136865 0
-10.371071 -10.77494 0
0.74544917 -3.0062583 0
-8.0087436 3.0812309 0
-6.4506704 1.7880782 0
1.5978992 -1.2742341 0
0.76484946 -7.2744123 0
-2.7874235 -3.7298262 0
-4.0812954 4.5587712 0
-5.6307227 11.798539 0
-0.58660904 -2.4539507 0
-2.4976265 -3.1190923 0
-2.4638757 8.2986733 0
0.31448853 3.8366472 0
1.3201999 -3.2660839 0
-3.9319527 -8.6320665 0
1.1946527 8.4372067 0
2.4254673 -8.5125625 0
-6.7382996 3.9366945 0
-9.5130221 16.106082 0
-9.1548004 -0.49027058 0
-3.6479741 -1.4631474 0
-9.389711 10.617375 0
-5.5684463 3.1079681 0
3.2698192 -3.7806901 0
-15.099783 -4.6526125 0
-9.223202 1.9628216 0
-7.3514035 2.1638143 0
-5.1764252 -4.2439106 0
-10.793314 -1.646212 0
-7.2520356 -12.673827 0
-3.6705689 2.6239784 0
-7.6859635 0.67874776 0
6.8070958 7.0053473 0
-5.5640453 4.3743267 0
-3.3510419 -7.2594218 0
3.9009511 -5.568646 0
-5.9806546 4.7507978 0
-12.31777 5.1490946 0
-3.060663 5.8430794 0
-0.14929181 0.89411374 0
-4.5523252 1.2652161 0
-4.3597484 -0.99061853 0
7.1642551 12.305653 0
1.2790034 2.2959983 0
3.801186 -2.5944266 0
2.3191687 12.016531 0
-10.26602 -1.7765759 0
-6.3003247 5.4453862 0
-5.5412509 -8.9169496 0
1.7485666 4.8358664 0
-9.3891956 -12.280243 0
6.9017056 -1.0381056 0
-7.5569539 9.2767525 0
-0.49137403 -2.8213184 0
2.4155662 1.1409293 0
5.7791747 8.0795882 0
-5.8526875 1.0428808 0
2.985503 -0.21507936 0
-4.4696895 5.857982 0
11.726006 9.8790214 0
6.6585659 -2.8413164 0
6.8133081 -0.02579183 0
6.3738996 0.23038998 0
-4.1004158 -1.4745104 0
3.9949429 -4.9087139 0
0.45781472 6.7051307 0
-2.6405709 0.11022122 0
-3.3200499 4.3890517 0
2.897833 6.971008 0
0.47072153 -5.9098028 0
-1.9369021 5.5487594 0
-6.4891113 -1.3179023 0
-9.3419005 -0.40791658 0
-10.375293 -1.8778833 0
3.0136063 -7.917927 0
-0.37021381 2.1462629 0
-8.5162735 -7.8205153 0
-2.5848603 5.2331042 0
1.4043302 -7.6396079 0
0.61600716 -8.6436454 0
7.8496378 -1.5997059 0
0.74328442 5.7971623 0
-6.0339981 12.069191 0
6.9258572 2.2917475 0
-14.34145 8.7679738 0
1.2666856 -8.8117857 0
-6.5261394 -0.92060654 0
3.9716062 7.622364 0
-2.3287337 5.2907015 0
0.51616902 10.768511 0
-12.342644 -3.8126776 0
-10.018388 4.0191819 0
-4.8538717 0.96330072 0
-4.8692282 -8.503321 0
-9.8181776 -0.17757859 0
-7.4842288 4.1003739 0
-9.5062027 -1.336302 0
-2.2412492 9.685911 0
-1.5711108 -4.9649039 0
4.8074343 -4.0952884 0
-10.008042 0.0011734381 0
-7.6373612 -1.6605617 0
-1.0675182 5.0665548 0
0.43518584 -2.9005074 0
7.685829 6.020201 0
-3.619441 -4.0798941 0
4.8111724 1.4307483 0
0.52140035 9.1953519 0
-14.414219 -27.731916 0
4.6467395 0.0052564698 0
-7.2360919 -1.7852971 0
2.5869269 10.09698 0
-12.609643 -7.6155924 0
-4.3371466 -4.3858026 0
7.9842419 -1.4289022 0
-3.2885497 0.031361627 0
-1.9123961 -5.6464408 0
-9.8003804 0.12701344 0
-8.5881458 -3.335074 0
-0.36487176 -4.9526887 0
-9.8474 3.0520786 0
-9.998734 0.022649409 0
4.3134326 -3.3977895 0
-10.000561 0.014369908 0
-10.002954 -6.8632753e-05 0
-10.000295 3.6278161e-07 0
-10.051396 0.070948873 0
-10.003781 -0.0024264384 0
-9.9863991 -0.09848459 0
-8.5948514 -9.0734144 0
-8.8782168 -3.5113512 0
-7.2920749 3.7836731 0
-10.049347 0.71781152 0
-7.262359 -1.8761728 0
-8.7671937 0.46225996 0
-9.9569563 -1.3609249 0
9.392843 2.8816367 0
-13.587655 1.8951213 0
-10.113737 0.091909747 0
1.316604 -15.640534 0
-10.024795 -0.00595591 0
-2.9476126 -3.2742971 0
1.6927107 20.844451 0
-10.008667 -0.0066756059 0
-11.873796 0.72841455 0
-8.6664414 3.2104462 0
-10.008597 0.015439909 0
-9.7355213 1.1336841 0
-9.9993416 0.014158076 0
-9.9999453 -0.00016645515 0
-9.9999593 6.3964026e-05 0
-10.01098 0.042230133 0
-9.9985327 -0.00067706265 0
1.2169231 0.30941266 0
-6.7129132 1.2228537 0
-9.9851827 0.26242634 0
-10.007878 0.053998946 0
-9.9298763 -0.074844296 0
-10.003463 -0.09175963 0
-3.194827 10.123639 0
-4.3391102 -2.6058546 0
-11.452732 -3.8748875 0
-5.2849762 11.904768 0
-8.7147956 -1.3919726 0
5.687732 13.90268 0
-9.9982086 0.0018468569 0
-10.064779 -0.055428166 0
-0.22889934 -0.17679042 0
-10.579107 -0.35054944 0
-10.65002 1.2795456 0
-9.9921399 -0.0067418958 0
-9.989527 0.045071556 0
-10.009817 -0.055961728 0
-9.9990066 0.01416668 0
-9.9997277 -0.0001595804 0
-9.9997279 3.948588e-05 0
-9.9998017 0.0001920242 0
6.6228778 -13.521113 0
-10.086584 -0.022510032 0
-10.000002 0.00034942598 0
-10.010702 -0.81686697 0
-9.9998957 0.0010264152 0
2.2123527 -4.8670329 0
-9.7150393 -0.45287992 0
-9.9946525 -0.19988977 0
-8.2979645 -5.5123007 0
-9.1276321 3.5859545 0
14.073839 -9.4532379 0
-10.001853 8.1832527e-05 0
-6.9744991 2.5882727 0
-12.009459 2.2952335 0
-10.000259 -0.0026872416 0
-10.042433 0.049256682 0
-10.015814 -0.0096139508 0
-10.004356 0.0051807839 0
-4.7926132 3.6064312 0
-10.037065 0.043700831 0
-10.000737 -0.016246463 0
-10.012623 0.01337962 0
-10.014068 -0.00013792453 0
-10.014058 3.6273947e-05 0
-10.014044 6.3990162e-05 0
-10.014177 5.373701e-05 0
-10.014081 4.6947624e-05 0
-10.014067 0.00025371315 0
-9.868579 -1.4651175 0
-10.005819 0.021659277 0
-10.061832 0.019157042 0
-1.5578018 -4.5131242 0
-10.14342 -16.282513 0
5.2397555 5.1100409 0
2.1577629 -3.0518005 0
-10.011629 -0.17131404 0
-10.001252 0.03637374 0
-10.01769 -0.012952788 0
-10.0571 0.0047269975 0
-10.014266 -0.00027543263 0
-10.014077 6.1372408e-05 0
-10.014086 4.8616012e-05 0
-10.014088 7.0901267e-05 0
-10.014144 4.8562204e-05 0
-10.014105 0.00024104835 0
-10.013289 -0.013340833 0
9.3664052 -3.8409628 0
7.8442576 0.93714058 0
10.858445 -18.386932 0
6.9788452 -11.319314 0
4.7075862 -5.2612883 0
-0.046490855 -5.3144675 0
-3.5392147 -2.0605787 0
-5.9074653 -7.4790005 0
-2.6856594 -1.8190036 0
7.5958722 -0.54214687 0
-10.106758 -14.961819 0
0.4538474 4.6757375 0
2.3169046 -2.1135213 0
11.008477 3.6918817 0
5.7179732 6.3557145 0
-8.7526263 -4.005365 0
-0.36737134 0.2727439 0
24.368848 -15.598366 0
-6.1443068 14.928582 0
16.787765 -4.635243 0
10.241691 16.994225 0
3.3209989 8.3916464 0
-1.6738628 7.4004171 0
-2.6282259 22.954801 0
-4.4240763 10.187795 0
-1.2981733 -13.925712 0
4.2849649 4.8069466 0
7.9050549 1.3932572 0
-28.447661 -44.406151 0
4.9702484 7.7435048 0
-1.4690046 -7.0311893 0
-6.3012022 -8.9534977 0
3.6041916 -13.884317 0
-2.9406924 6.8365924 0
-3.4774568 3.5960863 0
0.86598096 -1.5532191 0
1.0734498 15.716478 0
4.8954612 -1.3386069 0
15.699098 10.102506 0
1.6636242 -1.4744389 0
-1.0304975 3.1144084 0
11.154863 12.232549 0
2.6531026 0.38910882 0
-9.7169926 -0.63413435 0
-7.2018527 12.418159 0
-3.0506744 11.986402 0
2.7522419 10.051157 0
-5.6466441 -4.684578 0
9.1501389 4.4441499 0
-0.11997732 9.3396352 0
8.2354645 -6.0208086 0
-6.9192852 -2.7879693 0
8.1989052 -18.074659 0
-5.3330424 -8.6973381 0
-15.600634 -3.1005199 0
-0.45130766 5.5871883 0
7.3424789 -2.5528144 0
3.2628896 -15.844961 0
-1.7039147 1.8896367 0
-5.4529339 5.1837041 0
3.1763761 -10.65022 0
-2.4518931 2.7367455 0
-0.064892706 3.3384112 0
7.374949 -0.19882287 0
-3.5877585 -11.075325 0
-0.47012195 -8.7182414 0
3.5259984 11.114691 0
0.4488716 5.3005235 0
12.15714 2.2891541 0
7.09427 9.1256847 0
4.0986954 10.08156 0
-1.9683748 11.618901 0
6.5808055 6.976228 0
-6.5504271 10.529226 0
3.0313101 14.077571 0
-6.5485462 -6.7367888 0
-1.9756091 -10.562084 0
1.4538425 -2.701338 0
-2.5133472 -1.6423602 0
1.1617443 -1.0497489 0
-0.96502604 -1.1084059 0
-3.2131808 -7.7767938 0
3.9327353 -16.716017 0
-3.4680961 -4.5738585 0
-3.2265594 -10.067445 0
3.3198706 -3.367455 0
2.5690127 -2.8669715 0
-9.083334 16.879761 0
7.5775949 6.3658897 0
-8.2999421 4.4099761 0
-1.9243535 0.577055 0
0.49598705 -20.546911 0
-3.3155303 -3.0289166 0
10.017443 -4.4662157 0
-6.5474696 18.44081 0
-2.8450672 2.7459646 0
7.6017791 5.0693235 0
-3.2948248 -5.1708671 0
-1.6526016 -12.568835 0
7.0375805 8.2928541 0
8.3269202 -8.6972772 0
10.964956 -13.481783 0
8.6432135 -0.535926 0
17.425352 10.354478 0
5.5413298 -6.5870718 0
4.4992513 -0.75095319 0
-4.4172056 -6.3202757 0
-7.4343062 -3.3591146 0
6.6298511 -2.9112776 0
-12.286602 -7.7061008 0
1.938632 -4.4257142 0
-10.822879 1.048995 0
8.5231008 -2.1675723 0
11.070965 15.745175 0
14.975313 9.5705531 0
10.590532 9.6738529 0
-11.252712 -1.7981158 0
-6.6855934 9.6004699 0
3.2923297 4.7886337 0
8.9427817 10.752885 0
0.48839882 11.327934 0
1.3627971 23.700867 0