# vtk DataFile Version 4.0
hesp visualization file
ASCII
DATASET UNSTRUCTURED_GRID
POINTS 1250 double
30.295928 1.141031 4
30.281615 2.2388734 4
30.245017 3.3658436 4
30.245018 4.4882701 4
30.245018 5.6107394 4
30.245018 6.7331977 4
30.245018 7.8556629 4
30.245018 8.9781212 4
30.245018 10.100585 4
30.245018 11.223049 4
30.245018 12.345517 4
30.245015 13.467936 4
30.245015 14.590403 4
30.245015 15.712848 4
30.245015 16.835311 4
30.245016 17.958251 4
30.245016 19.080711 4
30.245016 20.20318 4
30.245016 21.325643 4
30.245015 22.447992 4
30.245016 23.570456 4
30.245013 24.692916 4
30.245012 25.815358 4
30.245012 26.93778 4
30.245006 28.058243 4
31.091504 1.09755 4
31.085094 2.2487721 4
31.081619 3.3684287 4
31.081619 4.4907372 4
31.081619 5.6131948 4
31.081619 6.7356585 4
31.081619 7.8581197 4
31.081619 8.9805827 4
31.081619 10.103044 4
31.081619 11.225506 4
31.081619 12.347967 4
31.081619 13.470441 4
31.081619 14.592902 4
31.081619 15.715368 4
31.081619 16.83783 4
31.081618 17.960144 4
31.081618 19.082606 4
31.081618 20.205066 4
31.081618 21.327528 4
31.081619 22.450029 4
31.081619 23.572491 4
31.081619 24.694953 4
31.081619 25.81742 4
31.081619 26.939995 4
31.081679 28.066549 4
32.120892 1.1434258 4
31.671464 2.2422354 4
31.571617 3.3667009 4
31.571618 4.4892803 4
31.571618 5.6117452 4
31.571618 6.7342064 4
31.571618 7.8566689 4
31.571618 8.9791304 4
31.571618 10.101593 4
31.571618 11.224055 4
31.571618 12.346518 4
31.571617 13.468974 4
31.571615 14.591436 4
31.571618 15.713896 4
31.571615 16.836358 4
31.571615 17.958891 4
31.571615 19.081353 4
31.571615 20.203816 4
31.571615 21.326278 4
31.571615 22.44872 4
31.571615 23.571182 4
31.571615 24.693644 4
31.571615 25.816104 4
31.571614 26.938469 4
31.571547 28.056872 4
32.409869 1.1195759 4
32.410052 2.2455071 4
32.408243 3.3675281 4
32.408243 4.4899555 4
32.408243 5.6124171 4
32.408243 6.7348792 4
32.408243 7.8573412 4
32.408243 8.9798033 4
32.408243 10.102265 4
32.408243 11.224727 4
32.408243 12.347189 4
32.408243 13.469651 4
32.408243 14.592114 4
32.408243 15.714576 4
32.408243 16.837038 4
32.408243 17.959504 4
32.408243 19.081966 4
32.408243 20.204428 4
32.408243 21.32689 4
32.408243 22.449353 4
32.408243 23.571815 4
32.408243 24.694277 4
32.408243 25.816739 4
32.408243 26.939231 4
32.408247 28.06253 4
33.125726 1.1248893 4
33.124418 2.2445671 4
32.89795 3.3673114 4
32.897943 4.4897935 4
32.897942 5.6122558 4
32.897942 6.7347179 4
32.897942 7.8571799 4
32.897942 8.979642 4
32.897942 10.102104 4
32.897942 11.224566 4
32.897942 12.347028 4
32.897942 13.46949 4
32.897942 14.591952 4
32.897942 15.714414 4
32.897942 16.836876 4
32.897942 17.959336 4
32.897942 19.081798 4
32.897942 20.20426 4
32.897942 21.326722 4
32.897942 22.449184 4
32.897942 23.571646 4
32.897942 24.694108 4
32.897942 25.81657 4
32.897942 26.939013 4
32.897943 28.060447 4
33.73476 1.1228596 4
33.73476 2.2449265 4
33.73477 3.3673859 4
33.73477 4.4898482 4
33.73477 5.6123102 4
33.73477 6.7347723 4
33.73477 7.8572343 4
33.73477 8.9796964 4
33.73477 10.102158 4
33.73477 11.22462 4
33.73477 12.347083 4
33.73477 13.469545 4
33.73477 14.592007 4
33.73477 15.714469 4
33.73477 16.836931 4
33.73477 17.959393 4
33.73477 19.081855 4
33.73477 20.204317 4
33.73477 21.326779 4
33.73477 22.449241 4
33.73477 23.571703 4
33.73477 24.694165 4
33.73477 25.816627 4
33.73477 26.939087 4
33.73477 28.061154 4
34.857234 1.1228592 4
34.857234 2.2449267 4
34.857234 3.3673861 4
34.857234 4.4898482 4
34.857234 5.6123102 4
34.857234 6.7347723 4
34.857234 7.8572343 4
34.857234 8.9796964 4
34.857234 10.102158 4
34.857234 11.22462 4
34.857234 12.347083 4
34.857234 13.469545 4
34.857234 14.592007 4
34.857234 15.714469 4
34.857234 16.836931 4
34.857234 17.959393 4
34.857234 19.081855 4
34.857234 20.204317 4
34.857234 21.326779 4
34.857234 22.449241 4
34.857234 23.571703 4
34.857234 24.694165 4
34.857234 25.816627 4
34.857234 26.939087 4
34.857234 28.061154 4
35.979696 1.1228592 4
35.979696 2.2449267 4
35.979696 3.3673861 4
35.979696 4.4898482 4
35.979696 5.6123102 4
35.979696 6.7347723 4
35.979696 7.8572343 4
35.979696 8.9796964 4
35.979696 10.102158 4
35.979696 11.22462 4
35.979696 12.347083 4
35.979696 13.469545 4
35.979696 14.592007 4
35.979696 15.714469 4
35.979696 16.836931 4
35.979696 17.959393 4
35.979696 19.081855 4
35.979696 20.204317 4
35.979696 21.326779 4
35.979696 22.449241 4
35.979696 23.571703 4
35.979696 24.694165 4
35.979696 25.816627 4
35.979696 26.939087 4
35.979696 28.061154 4
37.102158 1.1228592 4
37.102158 2.2449267 4
37.102158 3.3673861 4
37.102158 4.4898482 4
37.102158 5.6123102 4
37.102158 6.7347723 4
37.102158 7.8572343 4
37.102158 8.9796964 4
37.102158 10.102158 4
37.102158 11.22462 4
37.102158 12.347083 4
37.102158 13.469545 4
37.102158 14.592007 4
37.102158 15.714469 4
37.102158 16.836931 4
37.102158 17.959393 4
37.102158 19.081855 4
37.102158 20.204317 4
37.102158 21.326779 4
37.102158 22.449241 4
37.102158 23.571703 4
37.102158 24.694165 4
37.102158 25.816627 4
37.102158 26.939087 4
37.102158 28.061154 4
38.22462 1.1228592 4
38.22462 2.2449267 4
38.22462 3.3673861 4
38.22462 4.4898482 4
38.22462 5.6123102 4
38.22462 6.7347723 4
38.22462 7.8572343 4
38.22462 8.9796964 4
38.22462 10.102158 4
38.22462 11.22462 4
38.22462 12.347083 4
38.22462 13.469545 4
38.22462 14.592007 4
38.22462 15.714469 4
38.22462 16.836931 4
38.22462 17.959393 4
38.22462 19.081855 4
38.22462 20.204317 4
38.22462 21.326779 4
38.22462 22.449241 4
38.22462 23.571703 4
38.22462 24.694165 4
38.22462 25.816627 4
38.22462 26.939087 4
38.22462 28.061154 4
39.347083 1.1228592 4
39.347083 2.2449267 4
39.347083 3.3673861 4
39.347083 4.4898482 4
39.347083 5.6123102 4
39.347083 6.7347723 4
39.347083 7.8572343 4
39.347083 8.9796964 4
39.347083 10.102158 4
39.347083 11.22462 4
39.347083 12.347083 4
39.347083 13.469545 4
39.347083 14.592007 4
39.347083 15.714469 4
39.347083 16.836931 4
39.347083 17.959393 4
39.347083 19.081855 4
39.347083 20.204317 4
39.347083 21.326779 4
39.347083 22.449241 4
39.347083 23.571703 4
39.347083 24.694165 4
39.347083 25.816627 4
39.347083 26.939087 4
39.347083 28.061154 4
40.469545 1.1228592 4
40.469545 2.2449267 4
40.469545 3.3673861 4
40.469545 4.4898482 4
40.469545 5.6123102 4
40.469545 6.7347723 4
40.469545 7.8572343 4
40.469545 8.9796964 4
40.469545 10.102158 4
40.469545 11.22462 4
40.469545 12.347083 4
40.469545 13.469545 4
40.469545 14.592007 4
40.469545 15.714469 4
40.469545 16.836931 4
40.469545 17.959393 4
40.469545 19.081855 4
40.469545 20.204317 4
40.469545 21.326779 4
40.469545 22.449241 4
40.469545 23.571703 4
40.469545 24.694165 4
40.469545 25.816627 4
40.469545 26.939087 4
40.469545 28.061154 4
41.592007 1.1228592 4
41.592007 2.2449267 4
41.592007 3.3673861 4
41.592007 4.4898482 4
41.592007 5.6123102 4
41.592007 6.7347723 4
41.592007 7.8572343 4
41.592007 8.9796964 4
41.592007 10.102158 4
41.592007 11.22462 4
41.592007 12.347083 4
41.592007 13.469545 4
41.592007 14.592007 4
41.592007 15.714469 4
41.592007 16.836931 4
41.592007 17.959393 4
41.592007 19.081855 4
41.592007 20.204317 4
41.592007 21.326779 4
41.592007 22.449241 4
41.592007 23.571703 4
41.592007 24.694165 4
41.592007 25.816627 4
41.592007 26.939087 4
41.592007 28.061154 4
42.714469 1.1228592 4
42.714469 2.2449267 4
42.714469 3.3673861 4
42.714469 4.4898482 4
42.714469 5.6123102 4
42.714469 6.7347723 4
42.714469 7.8572343 4
42.714469 8.9796964 4
42.714469 10.102158 4
42.714469 11.22462 4
42.714469 12.347083 4
42.714469 13.469545 4
42.714469 14.592007 4
42.714469 15.714469 4
42.714469 16.836931 4
42.714469 17.959393 4
42.714469 19.081855 4
42.714469 20.204317 4
42.714469 21.326779 4
42.714469 22.449241 4
42.714469 23.571703 4
42.714469 24.694165 4
42.714469 25.816627 4
42.714469 26.939087 4
42.714469 28.061154 4
43.836931 1.1228592 4
43.836931 2.2449267 4
43.836931 3.3673861 4
43.836931 4.4898482 4
43.836931 5.6123102 4
43.836931 6.7347723 4
43.836931 7.8572343 4
43.836931 8.9796964 4
43.836931 10.102158 4
43.836931 11.22462 4
43.836931 12.347083 4
43.836931 13.469545 4
43.836931 14.592007 4
43.836931 15.714469 4
43.836931 16.836931 4
43.836931 17.959393 4
43.836931 19.081855 4
43.836931 20.204317 4
43.836931 21.326779 4
43.836931 22.449241 4
43.836931 23.571703 4
43.836931 24.694165 4
43.836931 25.816627 4
43.836931 26.939087 4
43.836931 28.061154 4
44.959393 1.1228592 4
44.959393 2.2449267 4
44.959393 3.3673861 4
44.959393 4.4898482 4
44.959393 5.6123102 4
44.959393 6.7347723 4
44.959393 7.8572343 4
44.959393 8.9796964 4
44.959393 10.102158 4
44.959393 11.22462 4
44.959393 12.347083 4
44.959393 13.469545 4
44.959393 14.592007 4
44.959393 15.714469 4
44.959393 16.836931 4
44.959393 17.959393 4
44.959393 19.081855 4
44.959393 20.204317 4
44.959393 21.326779 4
44.959393 22.449241 4
44.959393 23.571703 4
44.959393 24.694165 4
44.959393 25.816627 4
44.959393 26.939087 4
44.959393 28.061154 4
46.081855 1.1228592 4
46.081855 2.2449267 4
46.081855 3.3673861 4
46.081855 4.4898482 4
46.081855 5.6123102 4
46.081855 6.7347723 4
46.081855 7.8572343 4
46.081855 8.9796964 4
46.081855 10.102158 4
46.081855 11.22462 4
46.081855 12.347083 4
46.081855 13.469545 4
46.081855 14.592007 4
46.081855 15.714469 4
46.081855 16.836931 4
46.081855 17.959393 4
46.081855 19.081855 4
46.081855 20.204317 4
46.081855 21.326779 4
46.081855 22.449241 4
46.081855 23.571703 4
46.081855 24.694165 4
46.081855 25.816627 4
46.081855 26.939087 4
46.081855 28.061154 4
47.204317 1.1228592 4
47.204317 2.2449267 4
47.204317 3.3673861 4
47.204317 4.4898482 4
47.204317 5.6123102 4
47.204317 6.7347723 4
47.204317 7.8572343 4
47.204317 8.9796964 4
47.204317 10.102158 4
47.204317 11.22462 4
47.204317 12.347083 4
47.204317 13.469545 4
47.204317 14.592007 4
47.204317 15.714469 4
47.204317 16.836931 4
47.204317 17.959393 4
47.204317 19.081855 4
47.204317 20.204317 4
47.204317 21.326779 4
47.204317 22.449241 4
47.204317 23.571703 4
47.204317 24.694165 4
47.204317 25.816627 4
47.204317 26.939087 4
47.204317 28.061154 4
48.326779 1.1228592 4
48.326779 2.2449267 4
48.326779 3.3673861 4
[...]
POINT_DATA 1250
SCALARS m double
LOOKUP_TABLE default
1
1
1
1
1
1
1
1
1
1
1
1
1
1
1
1
1
1
1
1
1
1
1
1
1
1
1
1
1
1
1
1
1
1
1
1
1
1
1
1
1
1
1
1
1
1
1
1
1
1
1
1
1
1
1
1
1
1
1
1
1
1
1
1
1
1
1
1
1
1
1
1
1
1
1
1
1
1
1
1
1
1
1
1
1
1
1
1
1
1
1
1
1
1
1
1
1
1
1
1
1
1
1
1
1
1
1
1
1
1
1
1
1
1
1
1
1
1
1
1
1
1
1
1
1
1
1
1
1
1
1
1
1
1
1
1
1
1
1
1
1
1
1
1
1
1
1
1
1
1
1
1
1
1
1
1
1
1
1
1
1
1
1
1
1
1
1
1
1
1
1
1
1
1
1
1
1
1
1
1
1
1
1
1
1
1
1
1
1
1
1
1
1
1
1
1
1
1
1
1
1
1
1
1
1
1
1
1
1
1
1
1
1
1
1
1
1
1
1
1
1
1
1
1
1
1
1
1
1
1
1
1
1
1
1
1
1
1
1
1
1
1
1
1
1
1
1
1
1
1
1
1
1
1
1
1
1
1
1
1
1
1
1
1
1
1
1
1
1
1
1
1
1
1
1
1
1
1
1
1
1
1
1
1
1
1
1
1
1
1
1
1
1
1
1
1
1
1
1
1
1
1
1
1
1
1
1
1
1
1
1
1
1
1
1
1
1
1
1
1
1
1
1
1
1
1
1
1
1
1
1
1
1
1
1
1
1
1
1
1
1
1
1
1
1
1
1
1
1
1
1
1
1
1
1
1
1
1
1
1
1
1
1
1
1
1
1
1
1
1
1
1
1
1
1
1
1
1
1
1
1
1
1
1
1
1
1
1
1
1
1
1
1
1
1
1
1
1
1
1
1
1
1
1
1
1
1
1
1
1
1
1
1
1
1
1
1
1
1
1
1
1
1
1
1
1
1
1
1
1
1
1
1
1
1
1
1
1
1
1
1
1
1
1
1
1
1
1
1
1
1
1
1
1
1
1
1
1
1
1
1
1
1
1
1
1
1
1
1
1
1
1
1
1
1
1
1
1
1
1
1
1
1
1
1
1
1
1
1
1
1
1
1
1
1
1
1
1
1
1
1
1
1
1
1
1
1
1
1
1
1
1
1
1
1
1
1
1
1
1
1
1
1
1
1
1
1
1
1
1
1
1
1
1
1
1
1
1
1
1
1
1
1
1
1
1
1
1
1
1
1
1
1
1
1
1
1
1
1
1
1
1
1
1
1
1
1
1
1
1
1
1
1
1
1
1
1
1
1
1
1
1
1
1
1
1
1
1
1
1
1
1
1
1
1
1
1
1
1
1
1
1
1
1
1
1
1
1
1
1
1
1
1
1
1
1
1
1
1
1
1
1
1
1
1
1
1
1
1
1
1
1
1
1
1
1
1
1
1
1
1
1
1
1
1
1
1
1
1
1
1
1
1
1
1
1
1
1
1
1
1
1
1
1
1
1
1
1
1
1
1
1
1
1
1
1
1
1
1
1
1
1
1
1
1
1
1
1
1
1
1
1
1
1
1
1
1
1
1
1
1
1
1
1
1
1
1
1
1
1
1
1
1
1
1
1
1
1
1
1
1
1
1
1
1
1
1
1
1
1
1
1
1
1
1
1
1
1
1
1
1
1
1
1
1
1
1
1
1
1
1
1
1
1
1
1
1
1
1
1
1
1
1
1
1
1
1
1
1
1
1
1
1
1
1
1
1
1
1
1
1
1
1
1
1
1
1
1
1
1
1
1
1
1
1
1
1
1
1
1
1
1
1
1
1
1
1
1
1
1
1
1
1
1
1
1
1
1
1
1
1
1
1
1
1
1
1
1
1
1
1
1
1
1
1
1
1
1
1
1
1
1
1
1
1
1
1
1
1
1
1
1
1
1
1
1
1
1
1
1
1
1
1
1
1
1
1
1
1
1
1
1
1
1
1
1
1
1
1
1
1
1
1
1
1
1
1
1
1
1
1
1
1
1
1
1
1
1
1
1
1
1
1
1
1
1
1
1
1
1
1
1
1
1
1
1
1
1
1
1
1
1
1
1
1
1
1
1
1
1
1
1
1
1
1
1
1
1
1
1
1
1
1
1
1
1
1
1
1
1
1
1
1
1
1
1
1
1
1
1
1
1
1
1
1
1
1
1
1
1
1
1
1
1
1
1
1
1
1
1
1
1
1
1
1
1
1
1
1
1
1
1
1
1
1
1
1
1
1
1
1
1
1
1
1
1
1
1
1
1
1
1
1
1
1
1
1
1
1
1
1
1
1
1
1
1
1
1
1
1
1
1
1
1
1
1
1
1
1
1
1
1
1
1
1
1
1
1
1
1
1
1
1
1
1
1
1
1
1
1
1
1
1
1
1
1
1
1
1
1
1
1
1
1
1
1
1
1
1
1
1
1
1
1
1
1
1
1
1
1
1
1
1
1
1
1
1
1
1
1
1
1
1
1
1
1
1
1
1
1
1
1
1
1
1
1
1
1
1
1
1
1
1
1
1
1
1
1
1
1
1
1
1
1
1
1
1
1
1
1
1
1
1
1
1
1
1
1
1
1
1
1
1
1
1
1
1
1
1
1
1
1
1
1
1
1
1
1
1
1
1
1
1
1
1
1
1
1
1
1
1
1
1
1
1
1
1
1
1
1
1
1
1
1
1
1
1
1
1
1
1
1
1
1
1
1
1
1
1
1
1
1
1
1
1
1
1
1
1
1
1
1
1
1
1
1
1
1
1
1
1
1
1
1
1
1
1
1
1
1
1
1
1
1
1
1
1
1
1
1
VECTORS v double
13.330042 0.90129829 0
12.522277 -0.33431284 0
10.013023 -0.079256917 0
10.012982 -0.084969986 0
10.012984 -0.084597386 0
10.012983 -0.084798686 0
10.012984 -0.084608155 0
10.012982 -0.084831301 0
10.012983 -0.084736113 0
10.012985 -0.084592919 0
10.012988 -0.08425881 0
10.012957 -0.086793278 0
10.012959 -0.086550142 0
10.01295 -0.087511261 0
10.012951 -0.087455059 0
10.013103 -0.059672536 0
10.013102 -0.05980855 0
10.013104 -0.059414312 0
10.013104 -0.059372077 0
10.013063 -0.065849602 0
10.013064 -0.065711927 0
10.013054 -0.065849057 0
10.013037 -0.067108857 0
10.013039 -0.067519838 0
10.013012 -0.090701692 0
-9.9828203 -0.65940238 0
-10.003274 0.15355988 0
-10.012443 0.04885974 0
-10.012461 0.041358525 0
-10.012462 0.041150943 0
-10.012462 0.041222725 0
-10.012462 0.041187072 0
-10.012462 0.04122996 0
-10.012462 0.041212814 0
-10.012462 0.041212826 0
-10.012462 0.04114227 0
-10.01246 0.04165792 0
-10.012461 0.041610927 0
-10.01246 0.041823825 0
-10.01246 0.041808627 0
-10.012481 0.035328431 0
-10.012481 0.035328483 0
-10.012481 0.035246994 0
-10.012481 0.035244845 0
-10.012476 0.036945025 0
-10.012476 0.036945012 0
-10.012476 0.036944815 0
-10.012475 0.037198916 0
-10.012454 0.042889624 0
-10.009222 0.26311345 0
15.179885 0.60448113 0
10.906225 -0.13475538 0
10.013533 -0.042960572 0
10.013551 -0.036078454 0
10.013551 -0.03589867 0
10.01355 -0.035957194 0
10.01355 -0.035928126 0
10.01355 -0.035963095 0
10.01355 -0.035949115 0
10.01355 -0.035949123 0
10.01355 -0.035891605 0
10.013544 -0.036312031 0
10.013535 -0.036273777 0
10.013543 -0.036447306 0
10.013534 -0.036434749 0
10.013556 -0.031253478 0
10.013554 -0.031253391 0
10.013554 -0.031186948 0
10.013554 -0.031185224 0
10.013548 -0.032571445 0
10.013548 -0.032571464 0
10.013548 -0.032571297 0
10.013547 -0.03277831 0
10.013523 -0.038184591 0
10.010245 -0.25060353 0
-9.9413673 -0.10640841 0
-10.00418 0.018183176 0
-10.01142 0.0063648783 0
-10.011418 0.0047540355 0
-10.011418 0.0047333538 0
-10.011418 0.0047333531 0
-10.011418 0.0047333531 0
-10.011418 0.0047333532 0
-10.011418 0.0047333532 0
-10.011418 0.0047333533 0
-10.011418 0.0047333546 0
-10.011418 0.0047333366 0
-10.011418 0.0047334367 0
-10.011418 0.0047333271 0
-10.011418 0.0047332235 0
-10.011418 0.0049397807 0
-10.011418 0.0049397658 0
-10.011418 0.0049397659 0
-10.011418 0.0049397664 0
-10.011418 0.0049397302 0
-10.011418 0.0049397306 0
-10.011418 0.0049397082 0
-10.011418 0.0049395069 0
-10.011416 0.0063777937 0
-10.011223 0.058266624 0
11.210567 0.087053607 0
11.203866 -0.0149573 0
10.012403 -0.0052030237 0
10.012285 -0.0038768256 0
10.012284 -0.0038594851 0
10.012284 -0.0038594844 0
10.012284 -0.0038594843 0
10.012284 -0.0038594845 0
10.012284 -0.0038594844 0
10.012284 -0.0038594845 0
10.012284 -0.0038594854 0
10.012284 -0.0038594719 0
10.012284 -0.0038595532 0
10.012284 -0.0038594643 0
10.012284 -0.0038593841 0
10.012284 -0.0040277835 0
10.012284 -0.0040277756 0
10.012284 -0.0040277755 0
10.012284 -0.0040277757 0
10.012284 -0.0040277496 0
10.012284 -0.0040277498 0
10.012284 -0.0040277314 0
10.012284 -0.0040275256 0
10.012282 -0.0052357731 0
10.012161 -0.052689068 0
-10.002519 0.0026852412 0
-10.002496 -3.4378971e-06 0
-10.000335 -1.8345351e-05 0
-10.000324 -4.2659059e-07 0
-10.000324 -1.0434358e-08 0
-10.000324 -1.0449245e-08 0
-10.000324 -1.0449294e-08 0
-10.000324 -1.044939e-08 0
-10.000324 -1.0449335e-08 0
-10.000324 -1.0449368e-08 0
-10.000324 -1.044917e-08 0
-10.000324 -1.0450569e-08 0
-10.000324 -1.0450075e-08 0
-10.000324 -1.0448983e-08 0
-10.000324 -1.0428582e-08 0
-10.000324 -1.0923753e-08 0
-10.000324 -1.0894318e-08 0
-10.000324 -1.0892619e-08 0
-10.000324 -1.0892145e-08 0
-10.000324 -1.0895789e-08 0
-10.000324 -1.0895316e-08 0
-10.000324 -1.083724e-08 0
-10.000324 1.1271335e-08 0
-10.000324 -1.6669787e-05 0
-10.000312 -0.0026613301 0
-10.000005 0.0026496178 0
-10.000005 1.5818216e-05 0
-10.000003 -4.5901248e-07 0
-10.000002 -3.4264688e-11 0
-10.000002 6.4099058e-12 0
-10.000002 6.25797e-12 0
-10.000002 6.2579412e-12 0
-10.000002 6.2571782e-12 0
-10.000002 6.2597181e-12 0
-10.000002 6.2564091e-12 0
-10.000002 6.2579304e-12 0
-10.000002 6.2598909e-12 0
-10.000002 6.2559167e-12 0
-10.000002 6.2578976e-12 0
-10.000002 6.4742623e-12 0
-10.000002 6.1730452e-12 0
-10.000002 6.529278e-12 0
-10.000002 6.5308915e-12 0
-10.000002 6.5309101e-12 0
-10.000002 6.5322615e-12 0
-10.000002 6.5000889e-12 0
-10.000002 5.1947883e-11 0
-10.000002 2.1112502e-08 0
-10.000002 -1.6260436e-05 0
-10.000002 -0.0026491773 0
-10 0.0026488954 0
-10 1.6260603e-05 0
-10 -2.1103378e-08 0
-10 -4.5247465e-11 0
-10 2.9562983e-14 0
-10 3.1308483e-17 0
-10 -1.3900123e-18 0
-10 -7.5609341e-16 0
-10 1.7801704e-15 0
-10 -1.5308146e-15 0
-10 -2.4699107e-17 0
-10 1.4845896e-15 0
-10 -1.5219444e-15 0
-10 -6.3158809e-17 0
-10 3.1034432e-17 0
-10 1.5843829e-15 0
-10 -1.584818e-15 0
-10 -4.6831932e-18 0
-10 6.2215677e-17 0
-10 1.440316e-15 0
-10 -3.0657443e-14 0
-10 4.541767e-11 0
-10 2.1103504e-08 0
-10 -1.6260603e-05 0
-10 -0.0026488954 0
-10 0.0026488954 0
-10 1.6260603e-05 0
-10 -2.1103506e-08 0
-10 -4.5418104e-11 0
-10 2.956409e-14 0
-10 3.0393024e-17 0
-10 -2.2396671e-18 0
-10 -7.5685687e-16 0
-10 1.7792194e-15 0
-10 -1.5314875e-15 0
-10 -2.5646983e-17 0
-10 1.483541e-15 0
-10 -1.5225478e-15 0
-10 -6.4108876e-17 0
-10 3.0442651e-17 0
-10 1.5835723e-15 0
-10 -1.5856703e-15 0
-10 -5.4703929e-18 0
-10 6.1296364e-17 0
-10 1.4394094e-15 0
-10 -3.0658152e-14 0
-10 4.541767e-11 0
-10 2.1103504e-08 0
-10 -1.6260603e-05 0
-10 -0.0026488954 0
-10 0.0026488954 0
-10 1.6260603e-05 0
-10 -2.1103505e-08 0
-10 -4.5416893e-11 0
-10 3.0775624e-14 0
-10 9.1055576e-17 0
-10 -2.3451933e-18 0
-10 -7.5740053e-16 0
-10 1.7792949e-15 0
-10 -1.5314704e-15 0
-10 -2.6246198e-17 0
-10 1.4827687e-15 0
-10 -1.5238473e-15 0
-10 -6.321465e-17 0
-10 3.1048863e-17 0
-10 1.5841617e-15 0
-10 -1.5858914e-15 0
-10 -5.4764774e-18 0
-10 6.1488389e-17 0
-10 1.4387595e-15 0
-10 -3.0658742e-14 0
-10 4.5417669e-11 0
-10 2.1103504e-08 0
-10 -1.6260603e-05 0
-10 -0.0026488954 0
-10 0.0026488954 0
-10 1.6260603e-05 0
-10 -2.1103504e-08 0
-10 -4.9388304e-11 0
-10 -3.9403326e-12 0
-10 9.6844825e-16 0
-10 2.1863487e-18 0
-10 -7.562292e-16 0
-10 1.7792614e-15 0
-10 -1.5314074e-15 0
-10 -2.5228581e-17 0
-10 1.484312e-15 0
-10 -1.5214269e-15 0
-10 -6.5130883e-17 0
-10 3.0163219e-17 0
-10 1.5830624e-15 0
-10 -1.5858609e-15 0
-10 -5.5128472e-18 0
-10 6.330983e-17 0
-10 1.4409869e-15 0
-10 -3.0658403e-14 0
-10 4.5417672e-11 0
-10 2.1103504e-08 0
-10 -1.6260603e-05 0
-10 -0.0026488954 0
-10 0.0026488954 0
-10 1.6260603e-05 0
-10 -2.1103504e-08 0
-10 -4.5418231e-11 0
-9.9999999 2.9431947e-14 0
-9.9999999 3.0589162e-17 0
-9.9999999 -2.12517e-18 0
-9.9999999 -7.56112e-16 0
-9.9999999 1.7796395e-15 0
-9.9999999 -1.5305425e-15 0
-9.9999999 -2.5057773e-17 0
-9.9999999 1.484359e-15 0
-9.9999999 -1.5209032e-15 0
-9.9999999 -6.5644015e-17 0
-9.9999999 3.0150651e-17 0
-9.9999999 1.5951622e-15 0
-9.9999999 -1.1649708e-15 0
-9.9999999 4.2595938e-16 0
-9.9999999 -6.8085205e-14 0
-9.9999999 1.7563457e-15 0
-9.9999999 3.7828557e-14 0
-9.9999999 4.5417672e-11 0
-9.9999999 2.1103504e-08 0
-9.9999999 -1.6260603e-05 0
-9.9999999 -0.0026488954 0
-9.9999999 0.0026488954 0
-9.9999999 1.62606e-05 0
-9.9999999 -2.1106405e-08 0
-9.9999999 -4.1574347e-11 0
-9.9999999 3.9994896e-12 0
-9.9999999 -9.4316405e-16 0
-9.9999999 -6.077612e-18 0
-9.9999999 -7.5680429e-16 0
-9.9999999 -6.6695937e-14 0
-9.9999999 -7.0007505e-14 0
-9.9999999 3.3774756e-18 0
-9.9999999 1.5134657e-15 0
-9.9999999 -1.5242073e-15 0
-9.9999999 -6.2556211e-17 0
-9.9999999 3.0998392e-17 0
-9.9999999 1.5944991e-15 0
-9.9999999 -2.3325083e-12 0
-9.9999999 -2.33092e-12 0
-9.9999999 -2.5532703e-12 0
-9.9999999 -2.5517257e-12 0
-9.9999999 -3.0460995e-14 0
-9.9999999 4.5417674e-11 0
-9.9999999 2.1103504e-08 0
-9.9999999 -1.6260603e-05 0
-9.9999999 -0.0026488954 0
-9.9999999 0.0026488954 0
-9.9999999 1.6260603e-05 0
-9.9999999 -2.1102849e-08 0
-9.9999998 -4.5419187e-11 0
-9.9999998 2.8494118e-14 0
-9.9999998 -2.7139111e-17 0
-9.9999998 7.1263802e-17 0
-9.9999998 -6.6832863e-16 0
-9.9999998 1.6106506e-15 0
-9.9999998 -1.7233484e-15 0
-9.9999998 -6.0499759e-13 0
-9.9999998 -6.0348169e-13 0
-9.9999998 -1.524935e-15 0
-9.9999998 -6.0895958e-17 0
-9.9999998 3.4706434e-17 0
-9.9999998 1.585228e-15 0
-9.9999998 -1.5199813e-15 0
-9.9999997 6.2543347e-17 0
-9.9999997 6.8504987e-14 0
-9.9999996 -1.4901502e-12 0
-9.9999996 -1.5907129e-12 0
-9.9999996 4.5417646e-11 0
-9.9999996 2.1103504e-08 0
-9.9999996 -1.6260603e-05 0
-9.9999996 -0.0026488954 0
-9.9999996 0.0026488954 0
-9.9999996 1.6260606e-05 0
-9.9999996 -2.1100605e-08 0
-9.9999996 -4.5352837e-11 0
-9.9999996 -3.152057e-14 0
-9.9999996 6.9595454e-17 0
-9.9999996 -1.0064292e-12 0
-9.9999996 -1.2302986e-12 0
-9.9999996 -5.5142086e-13 0
-9.9999996 -3.3152504e-13 0
-9.9999996 -2.038779e-17 0
-9.9999996 -5.9593178e-14 0
-9.9999996 -6.2567249e-14 0
-9.9999996 5.2793176e-16 0
-9.9999996 1.3363097e-15 0
-9.9999996 2.0614649e-15 0
-9.9999996 1.3225354e-12 0
-9.9999996 1.3244778e-12 0
-9.9999996 2.5534523e-12 0
-9.9999996 2.5547839e-12 0
-9.9999995 -3.0664929e-14 0
-9.9999995 4.5417669e-11 0
-9.9999995 2.1103505e-08 0
-9.9999995 -1.6260605e-05 0
-9.9999995 -0.0026488954 0
-9.9999995 0.0026488954 0
-9.9999995 1.6260602e-05 0
-9.9999995 -2.1104161e-08 0
-9.9999995 -4.5418112e-11 0
-9.9999995 2.9567344e-14 0
-9.9999995 8.7855982e-17 0
-9.9999995 5.5183482e-17 0
-9.9999994 -7.6262137e-16 0
-9.9999993 1.7057307e-15 0
-9.9999993 -1.5939837e-15 0
-9.9999993 6.0493959e-13 0
-9.9999993 6.0645336e-13 0
-9.9999993 -1.1548153e-15 0
-9.9999993 -2.7475947e-12 0
-9.9999993 -6.053149e-12 0
-9.9999993 5.8987958e-13 0
-9.9999993 3.8900578e-12 0
-9.9999992 -6.7705132e-16 0
-9.9999992 -1.9111329e-16 0
-9.9999992 1.4935921e-12 0
-9.9999992 1.4617978e-12 0
-9.9999992 4.5417763e-11 0
-9.9999992 2.1103504e-08 0
-9.9999992 -1.6260603e-05 0
-9.9999991 -0.0026488954 0
-9.9999991 0.0026488954 0
-9.9999991 1.6260603e-05 0
-9.9999991 -2.1103505e-08 0
-9.9999991 -4.5356994e-11 0
-9.9999991 9.0642172e-14 0
-9.9999991 -8.9310387e-13 0
-9.9999991 1.1332389e-13 0
-9.9999991 1.228817e-12 0
-9.9999991 6.2345845e-13 0
-9.9999991 3.9693829e-13 0
-9.9999991 -6.5819443e-17 0
-9.9999991 6.2643756e-14 0
-9.9999991 6.0976219e-14 0
-9.9999991 2.3408852e-16 0
-9.999999 1.2718845e-16 0
-9.999999 9.8526021e-15 0
-9.9999991 1.5143138e-12 0
-9.9999991 1.5044125e-12 0
-9.9999991 4.9817919e-13 0
-9.9999991 -2.8046872e-12 0
-9.9999991 -3.6366844e-12 0
-9.9999991 4.5116102e-11 0
-9.9999991 2.1106752e-08 0
-9.9999991 -1.6260597e-05 0
-9.9999991 -0.0026488954 0
-9.9999991 0.0026488954 0
-9.9999991 1.6260599e-05 0
-9.9999991 -2.1103014e-08 0
-9.9999991 -4.4920985e-11 0
-9.9999991 5.2186857e-13 0
-9.9999991 -8.9058413e-15 0
-9.999999 -3.3280371e-15 0
-9.999999 -4.2065638e-15 0
-9.999999 2.0387314e-15 0
-9.999999 -1.3264503e-15 0
-9.999999 2.1120249e-17 0
-9.999999 9.6176657e-15 0
-9.999999 -3.8793733e-12 0
-9.999999 2.8290954e-12 0
-9.999999 1.0545507e-11 0
-9.999999 -5.9702241e-11 0
-9.999999 6.4011257e-11 0
-9.999999 7.9741307e-11 0
-9.999999 7.9745876e-11 0
-9.999999 7.9747337e-11 0
-9.999999 7.9524732e-11 0
-9.9999989 1.2497355e-10 0
-9.9999989 2.118325e-08 0
-9.999999 -1.6260523e-05 0
-9.999999 -0.0026488952 0
-9.999999 0.0026488953 0
-9.9999989 1.6261183e-05 0
-9.9999989 -2.1023905e-08 0
-9.9999989 3.4305977e-11 0
-9.9999989 1.2528571e-10 0
-9.9999989 -8.7220573e-13 0
-9.9999989 1.3987555e-12 0
-9.9999988 3.1330632e-13 0
-9.9999988 3.1590535e-13 0
-9.9999988 4.9562856e-13 0
-9.9999988 4.4929946e-12 0
-9.9999988 -5.5131907e-11 0
-9.9999988 6.8806461e-11 0
-9.9999988 8.0629479e-11 0
-9.9999988 7.7618804e-11 0
-9.9999988 -8.150111e-10 0
-9.9999983 4.8786311e-07 0
-9.9999983 4.8697895e-07 0
-9.9999983 4.8697585e-07 0
-9.9999983 4.869791e-07 0
-9.9999983 4.8697987e-07 0
-9.9999982 4.870214e-07 0
-9.9999982 5.0807581e-07 0
-9.9999982 -1.577363e-05 0
-9.9999982 -0.0026484084 0
-9.9999909 0.0026488944 0
-9.9999982 1.6748976e-05 0
-9.9999982 4.6587564e-07 0
-9.9999982 4.8693386e-07 0
-9.9999982 4.8786771e-07 0
-9.9999984 -8.1238208e-10 0
-9.9999984 7.6018151e-11 0
-9.9999984 8.0997947e-11 0
-9.9999983 8.0994869e-11 0
-9.9999983 8.1047557e-11 0
-9.9999983 7.7836999e-11 0
-9.9999984 -9.5381493e-10 0
-9.9999978 4.880039e-07 0
-9.9999977 4.8715141e-07 0
-9.9999977 4.8714383e-07 0
-9.9999977 4.8715964e-07 0
-9.9999977 4.8728666e-07 0
-9.9999976 4.8722703e-07 0
-9.9999976 4.8722707e-07 0
-9.9999976 4.8722558e-07 0
-9.9999976 4.8722571e-07 0
-9.9999976 4.8727386e-07 0
-9.9999975 5.0830663e-07 0
-9.9999974 -1.5773343e-05 0
-9.9999974 -0.0026484079 0
-9.9999901 0.0026488942 0
-9.9999973 1.6750117e-05 0
-9.9999973 4.6616354e-07 0
-9.9999973 4.8721864e-07 0
-9.9999973 4.8726637e-07 0
-9.9999973 4.8713954e-07 0
-9.9999973 4.8718507e-07 0
-9.9999973 4.8718328e-07 0
-9.9999972 4.8718329e-07 0
-9.9999972 4.8718506e-07 0
-9.9999972 4.871732e-07 0
-9.9999971 4.8526115e-07 0
-9.9999931 3.8982864e-06 0
-9.9999931 3.8963044e-06 0
-9.9999931 3.8962971e-06 0
-9.9999931 3.8963e-06 0
-9.9999931 3.8963005e-06 0
-9.9999931 3.896298e-06 0
-9.9999931 3.8961465e-06 0
-9.9999931 3.8964707e-06 0
-9.999993 3.896496e-06 0
-9.999993 3.8965406e-06 0
-9.999993 3.9172024e-06 0
-9.9999924 -1.1876711e-05 0
-9.9999924 -0.0026445104 0
-9.9999267 0.0026488918 0
-9.9999924 2.0651263e-05 0
-9.9999924 4.3623984e-06 0
-9.9999924 4.3834367e-06 0
-9.9999924 4.3834571e-06 0
-9.9999924 4.3835128e-06 0
-9.9999924 4.3835165e-06 0
-9.9999924 4.3835177e-06 0
-9.9999923 4.3835177e-06 0
-9.9999923 4.3835163e-06 0
-9.9999923 4.3835163e-06 0
-9.9999922 4.3835598e-06 0
-9.9999922 4.3838352e-06 0
-9.9999922 4.3836934e-06 0
-9.9999922 4.3836679e-06 0
-9.9999922 4.3837232e-06 0
-9.9999922 4.3837276e-06 0
-9.9999922 4.3837194e-06 0
-9.9999922 4.3814531e-06 0
-9.9999894 6.8208622e-06 0
-9.9999894 6.8185951e-06 0
-9.9999894 6.8186321e-06 0
-9.9999894 6.8396938e-06 0
-9.9999894 -9.4419404e-06 0
-9.9999894 -0.0026420743 0
-9.9998871 0.0026488899 0
-9.9999893 2.3088921e-05 0
-9.9999894 6.7975702e-06 0
-9.9999894 6.8186182e-06 0
-9.9999894 6.8182605e-06 0
-9.9999889 7.3060336e-06 0
-9.9999888 7.3056597e-06 0
-9.9999888 7.3056749e-06 0
-9.9999887 7.3056199e-06 0
-9.9999887 7.3057541e-06 0
-9.9999887 7.3057654e-06 0
-9.9999887 7.3057655e-06 0
-9.9999887 7.3057623e-06 0
-9.9999887 7.3057113e-06 0
-9.9999887 7.3054296e-06 0
-9.9999882 7.7932021e-06 0
-9.9999881 7.7928149e-06 0
-9.9999881 7.7928119e-06 0
-9.9999881 7.7928413e-06 0
-9.9999881 7.7931617e-06 0
-9.999988 7.7929867e-06 0
-9.999988 7.7930355e-06 0
-9.999988 7.8141249e-06 0
-9.999988 -8.4675633e-06 0
-9.999988 -0.0026411001 0
-9.9998876 0.0026489427 0
-10.000006 2.2608101e-05 0
-10.000006 6.7984089e-06 0
-10.000005 7.3060363e-06 0
-10.000005 7.3059836e-06 0
-10.000005 7.3058286e-06 0
-10.000004 8.2801692e-06 0
-10.000004 8.7673396e-06 0
-10.000003 8.7661747e-06 0
-10.000002 9.7419063e-06 0
-10.000002 9.7409934e-06 0
-10.000002 9.7410044e-06 0
-10.000002 9.740994e-06 0
-10.000002 9.7402603e-06 0
-10.000002 1.0228673e-05 0
-10.000001 1.0227988e-05 0
-10.000001 1.0715021e-05 0
-10.000001 1.071502e-05 0
-10.000001 1.0715019e-05 0
-10.000001 1.0715021e-05 0
-10.000001 1.0715091e-05 0
-9.9999935 1.0714337e-05 0
-9.9999935 1.0735357e-05 0
-9.9999935 -5.5521375e-06 0
-9.9999936 -0.00263823 0
-10.002326 0.0025021952 0
-10.002626 2.7147056e-05 0
-10.002626 1.0698402e-05 0
-10.002625 1.1207512e-05 0
-10.002625 1.1694286e-05 0
-10.002625 1.1694281e-05 0
-10.002625 1.1694336e-05 0
-10.002626 1.1207528e-05 0
-10.002633 1.1205829e-05 0
-10.002633 1.1206722e-05 0
-10.002633 1.1206558e-05 0
-10.002633 1.1694139e-05 0
-10.002633 1.1694021e-05 0
-10.002632 1.2181665e-05 0
-10.002632 1.2181761e-05 0
-10.002632 1.2181716e-05 0
-10.002632 1.2181716e-05 0
-10.002632 1.2181716e-05 0
-10.002632 1.2181716e-05 0
-10.002632 1.2181721e-05 0
-10.002631 1.2670481e-05 0
-10.002631 1.266906e-05 0
-10.002623 1.2689284e-05 0
-10.002623 -3.2601784e-06 0
-10.002477 -0.002489536 0
-6.9264816 -0.60708047 0
-6.8435102 0.25664108 0
-10.013086 0.07697672 0
-10.013015 0.085947022 0
-10.013018 0.085581907 0
-10.013016 0.08578505 0
-10.013018 0.085573035 0
-10.013016 0.085820657 0
-10.013017 0.085714332 0
-10.013018 0.085538706 0
-10.013021 0.085171788 0
-10.012999 0.08796685 0
-10.013001 0.087697313 0
-10.012992 0.088746541 0
-10.012993 0.088686863 0
-10.013206 0.058847145 0
-10.013205 0.059009491 0
-10.013207 0.058575471 0
-10.013207 0.058524924 0
-10.013166 0.065438551 0
-10.013167 0.065269658 0
-10.013166 0.065437912 0
-10.013158 0.06682826 0
-10.013159 0.065903982 0
-10.013105 0.030476017 0
10.054364 0.1026516 0
10.013001 -0.16091807 0
10.012414 -0.027754962 0
10.012365 -0.047215735 0
10.012365 -0.046985212 0
10.012365 -0.047029963 0
10.012366 -0.046761193 0
10.012365 -0.047068274 0
10.012365 -0.046925259 0
10.012368 -0.04641588 0
10.012369 -0.045999442 0
10.012355 -0.04942055 0
10.012356 -0.049088591 0
10.012351 -0.050213806 0
10.012351 -0.05016076 0
10.012436 -0.024140214 0
10.012428 -0.02422381 0
10.012429 -0.023726075 0
10.012429 -0.023626025 0
10.012416 -0.029484947 0
10.012417 -0.028994349 0
10.012416 -0.029486794 0
10.012411 -0.031227724 0
10.012425 -0.025158631 0
10.010404 0.20316913 0
-8.6255411 -0.074685423 0
-10.027387 0.14236532 0
-10.013796 0.023254998 0
-10.013636 0.04113684 0
-10.013635 0.040916633 0
-10.013635 0.040944352 0
-10.013636 0.040691178 0
-10.013635 0.040979977 0