# vtk DataFile Version 4.0
hesp visualization file
ASCII
DATASET UNSTRUCTURED_GRID
POINTS 1250 double
28.266639 -8.1161672 4
28.549713 -6.7598466 4
30.817742 -9.1937773 4
28.075504 1.9154576 4
34.736578 6.3525788 4
32.759153 3.7793693 4
32.949455 -8.4528591 4
36.243172 10.395979 4
30.247291 13.812153 4
28.576254 7.9836639 4
34.011511 11.940029 4
34.594193 12.538177 4
33.070511 10.52686 4
31.120841 13.738956 4
28.595126 21.227479 4
35.764579 11.890676 4
28.144679 27.072436 4
28.845158 17.91739 4
29.943366 21.692351 4
30.213072 31.133376 4
29.845847 25.894981 4
30.591484 29.22883 4
34.46394 21.163784 4
30.827921 52.392028 4
31.271152 41.090163 4
44.832891 -13.307217 4
26.695851 -6.2179762 4
23.5801 -11.666109 4
30.458662 0.5382924 4
27.474803 5.6240741 4
26.321132 3.4566427 4
24.366369 -2.3862854 4
31.346207 -7.5288708 4
29.103859 0.33761919 4
27.449224 2.3070033 4
24.496205 9.0402799 4
34.41331 6.7933942 4
32.716885 14.155119 4
29.690834 9.251627 4
33.628517 12.3462 4
29.363698 22.873271 4
29.864063 14.000069 4
27.228724 18.42282 4
33.058713 20.133106 4
32.427638 26.437595 4
29.514931 31.994701 4
30.136751 23.242365 4
30.173291 32.173943 4
30.787475 45.257133 4
30.546371 35.05202 4
32.421356 -8.0116898 4
32.119193 -17.640405 4
30.55938 -7.1252919 4
35.403934 2.2214757 4
40.9131 -10.448737 4
36.592156 1.1027809 4
31.96115 -7.1509319 4
35.812082 10.418037 4
33.672035 7.9224842 4
35.520987 7.6964013 4
31.534609 7.0784918 4
29.279883 7.966003 4
31.48693 9.1608169 4
33.613621 5.7342647 4
32.617535 12.841555 4
30.707191 12.842065 4
30.745809 15.477847 4
37.098326 20.873639 4
31.609772 16.244567 4
29.253701 31.94981 4
28.236285 19.83353 4
36.902263 26.112669 4
29.781043 20.142304 4
33.477773 33.798459 4
32.608962 26.684678 4
39.134207 -20.761299 4
29.088872 -5.0008544 4
30.760662 9.7435081 4
36.253949 -11.561121 4
27.292044 5.1496326 4
27.612908 6.4634626 4
26.949255 8.5362052 4
33.359123 7.8215128 4
29.329875 9.8958132 4
33.807247 8.5977232 4
28.173959 14.978867 4
31.829972 8.3183457 4
31.306391 16.608832 4
33.259276 16.428483 4
31.334569 8.1152238 4
31.537581 15.097688 4
28.654202 13.856822 4
34.022726 12.448987 4
31.191941 18.672562 4
30.932086 24.806117 4
37.610641 9.8301386 4
30.223158 24.985083 4
30.024917 27.858256 4
29.70676 30.567519 4
32.740465 49.841117 4
36.482777 -15.303172 4
25.871262 -16.054091 4
34.507801 -1.0468276 4
35.407705 5.9757722 4
22.121206 -7.117479 4
26.199033 5.6092604 4
29.560894 4.1808234 4
28.768336 1.0369906 4
36.392394 6.0024188 4
35.418118 4.5771239 4
31.622097 6.3160094 4
33.389913 2.6100902 4
35.050248 11.958796 4
31.061403 7.1689849 4
33.673346 15.522549 4
37.107752 19.424463 4
35.714922 14.117675 4
32.0615 15.45031 4
32.528717 18.103784 4
36.754706 23.207252 4
30.790125 27.876216 4
34.960482 29.603299 4
36.057413 25.549704 4
31.180853 32.732452 4
33.619231 30.818702 4
27.470854 -11.800356 4
27.181974 -16.792068 4
37.866117 10.171924 4
33.2395 3.2485544 4
32.191486 2.2698529 4
35.02063 8.9637518 4
33.304368 5.3502058 4
36.069623 3.3724243 4
34.079636 14.967681 4
41.628314 18.024381 4
35.049094 14.662249 4
33.805607 16.099098 4
33.059793 22.89148 4
39.951451 15.49249 4
34.232749 13.28849 4
32.710782 25.015083 4
31.520733 24.422694 4
35.798806 23.659954 4
35.19283 29.299825 4
34.94994 32.427066 4
33.490298 33.272176 4
32.522853 21.341945 4
29.005681 28.679709 4
36.803068 39.459095 4
28.771245 34.85541 4
29.855412 2.863369 4
23.59774 -18.519264 4
33.648583 -4.1440379 4
31.829427 -5.5105452 4
31.255068 -3.5171088 4
29.016188 6.2796477 4
29.50822 6.7742874 4
36.622139 7.9957662 4
32.865499 11.482565 4
28.961806 9.9133687 4
38.864684 11.529703 4
29.321913 14.436829 4
30.934028 11.060503 4
31.203865 15.157515 4
27.614715 17.953731 4
27.420507 15.003879 4
30.481659 19.363979 4
30.941925 23.404111 4
34.175241 30.636485 4
31.936192 25.945338 4
32.186591 28.008003 4
30.332459 29.032598 4
32.41385 35.418403 4
33.034013 28.901735 4
25.777477 38.618652 4
46.814971 -8.7037389 4
33.268713 -5.3602968 4
32.860245 -10.776302 4
32.626899 2.8291255 4
35.700219 8.7155322 4
26.613936 -11.77652 4
33.867583 7.7504119 4
24.057693 8.1438982 4
34.442692 3.8093737 4
35.351581 4.8896996 4
33.573046 9.7477883 4
28.58677 14.284552 4
34.483979 23.204853 4
33.876859 10.579658 4
35.351597 15.736724 4
33.185988 19.255475 4
34.054351 17.550813 4
31.272479 24.642528 4
36.410644 21.502637 4
30.229994 22.290951 4
29.115824 16.829235 4
26.16347 36.21617 4
35.328513 34.066147 4
31.687371 29.821192 4
44.202085 40.920046 4
30.743229 5.2211669 4
33.291643 2.9093732 4
32.152773 -1.6361647 4
34.090556 -15.527851 4
33.284538 -4.4084868 4
29.890819 3.7736706 4
35.466483 2.9133074 4
37.430301 8.2365608 4
33.831669 11.201387 4
34.623641 9.7924826 4
31.1854 16.982423 4
32.035186 19.716923 4
29.64284 16.03083 4
28.962657 15.459256 4
37.9468 23.421997 4
37.633692 19.462055 4
31.521386 12.146662 4
31.545739 7.4525817 4
30.388096 15.230771 4
35.403855 19.582522 4
39.217443 25.27791 4
37.420931 29.646382 4
31.050049 22.302819 4
38.118352 34.01198 4
34.221769 32.628279 4
32.67694 -5.3628318 4
22.97268 -8.6042345 4
37.062336 -6.6360184 4
33.406476 11.384137 4
29.919942 1.2113117 4
34.551618 7.4568572 4
35.80906 7.8193827 4
38.967963 8.0829804 4
35.485127 15.518592 4
39.278091 8.1677197 4
30.990647 12.87802 4
28.237825 11.449155 4
31.81862 18.150418 4
36.015639 11.314404 4
34.133561 19.442031 4
32.395173 19.850616 4
33.977834 22.373436 4
33.685295 28.928092 4
34.20064 20.810108 4
33.029637 27.573472 4
33.754145 22.792217 4
28.693721 26.020313 4
33.38968 32.134921 4
36.173736 33.651353 4
23.75585 35.968952 4
25.641723 -10.577039 4
32.051752 -3.3429937 4
33.447601 -1.3535155 4
27.680328 -3.8122665 4
41.857425 4.9895512 4
33.521109 1.8351126 4
39.139851 9.2420796 4
35.184024 1.6444451 4
34.746399 7.7644919 4
34.802453 12.767194 4
33.78468 16.491263 4
37.300552 14.429541 4
41.496286 11.555503 4
39.312935 10.832476 4
33.750853 19.183423 4
33.427802 18.2327 4
35.953474 14.775176 4
29.572344 21.870693 4
34.326379 19.666218 4
35.355516 24.854246 4
34.93623 28.214921 4
30.505321 20.111073 4
33.04525 23.574116 4
30.110122 31.628277 4
29.496625 33.694891 4
38.343915 -15.35186 4
31.43162 -3.7448242 4
27.9688 3.7747785 4
36.399866 6.3758371 4
35.908107 7.2390203 4
38.780903 4.7969483 4
33.900669 5.1095775 4
29.602209 7.9712464 4
35.480898 11.886666 4
33.176214 9.4393621 4
35.419468 14.929177 4
33.079485 13.587218 4
34.457908 18.07208 4
32.39657 15.066068 4
36.73602 21.41666 4
38.009997 22.772983 4
36.084963 17.164219 4
33.234095 22.693654 4
32.703094 25.522663 4
34.419676 23.475118 4
33.524089 25.902039 4
32.96449 25.11702 4
29.745056 32.185858 4
28.107291 42.209677 4
41.190749 40.491643 4
34.43958 -5.5930198 4
33.465246 -0.55711567 4
31.985489 1.3973753 4
28.472924 4.8607394 4
31.201744 2.815101 4
34.476814 -2.6500226 4
36.808799 6.0900924 4
38.367461 11.4847 4
39.685867 9.2393937 4
32.020927 8.7009395 4
38.708492 6.4461278 4
32.381437 15.593188 4
32.482541 16.48066 4
30.716291 16.338449 4
32.145627 15.932408 4
52.325155 14.039499 4
34.420162 26.77122 4
33.790479 24.90166 4
35.657543 22.131063 4
43.347582 31.886087 4
35.55655 31.152553 4
32.532269 27.987645 4
36.291845 30.264452 4
32.743754 38.085235 4
34.19085 42.491185 4
34.78788 -10.439551 4
35.132214 -0.71814162 4
33.228774 3.8531636 4
34.616696 3.2056334 4
30.399907 2.7621562 4
38.337496 5.8457494 4
33.459386 6.7947941 4
36.234199 6.7686972 4
34.987347 7.0405325 4
32.384866 4.5679371 4
39.18387 9.705992 4
35.876466 12.81217 4
29.359485 12.20769 4
36.970277 15.218181 4
40.789723 19.172787 4
37.917762 16.419814 4
40.657319 21.164019 4
35.858071 15.673001 4
36.224222 18.045496 4
36.932724 21.693927 4
38.176032 24.190549 4
32.322776 23.098349 4
36.222575 25.114058 4
38.842751 36.79965 4
34.88143 39.028406 4
37.163569 -1.9704254 4
34.503782 -13.546836 4
36.23404 0.03588059 4
34.433932 0.074731963 4
34.241807 1.5020293 4
34.691979 4.56434 4
34.263676 4.5962635 4
30.099954 5.251528 4
36.676207 16.327388 4
36.926033 7.4699675 4
34.546497 15.965295 4
36.221737 11.758784 4
39.641982 15.483385 4
35.683475 17.162817 4
34.83762 18.604444 4
30.950747 18.393745 4
34.035584 17.850168 4
37.963595 21.587224 4
36.968635 24.196163 4
34.883442 26.86449 4
33.251741 25.959897 4
34.109975 30.372279 4
37.568579 20.197808 4
33.422246 35.73426 4
37.184526 34.068045 4
32.283039 -2.2011504 4
38.243566 -1.4628402 4
32.155113 3.1587223 4
30.783378 4.3076813 4
34.079151 2.3448358 4
39.650721 7.952349 4
36.736807 14.430608 4
37.39713 11.360351 4
35.950131 8.6822568 4
36.645544 14.006275 4
36.685228 16.674146 4
38.28236 17.265891 4
35.132932 19.675832 4
42.290938 21.343496 4
33.102318 15.798825 4
39.323921 16.464403 4
36.592236 18.195762 4
35.589103 17.533739 4
38.6307 15.136446 4
37.897773 20.570268 4
36.736157 20.5095 4
38.072765 30.194228 4
38.205514 35.787024 4
31.936787 26.501139 4
30.041265 33.819939 4
39.881595 -1.8067002 4
35.814718 3.9790171 4
33.436791 -3.3903766 4
35.843083 3.0629106 4
34.042653 5.5738258 4
33.57813 5.2214858 4
41.245077 10.173375 4
36.016782 4.7238671 4
34.482528 7.716659 4
35.560401 13.359035 4
32.758117 17.143604 4
39.098147 8.5235735 4
37.161592 12.310716 4
36.001336 19.970333 4
37.6643 18.170945 4
37.91677 15.979369 4
35.042183 15.908393 4
35.508824 22.761768 4
35.972013 19.252024 4
34.496183 28.611117 4
34.146949 26.258631 4
35.547627 27.440231 4
35.556501 25.033129 4
28.83536 35.602828 4
35.240999 31.138618 4
32.939371 -2.6171588 4
37.87472 2.0245402 4
35.225169 4.1724215 4
37.085864 2.1622001 4
37.642503 3.8727507 4
36.249521 7.1274731 4
37.472057 9.3556923 4
36.55426 11.306074 4
34.759993 9.0863642 4
37.487799 14.145409 4
36.182967 15.639853 4
37.582605 14.654538 4
36.123092 12.485475 4
35.313199 16.095866 4
33.241882 18.75694 4
37.240092 25.096157 4
34.484725 20.165208 4
34.807823 20.361444 4
37.171023 22.228741 4
39.565137 21.360094 4
37.843519 24.672032 4
35.759998 24.662126 4
34.602824 30.162064 4
36.17771 25.967613 4
36.38727 33.376998 4
34.723733 -3.9408402 4
35.977171 0.10520085 4
[...]
POINT_DATA 1250
SCALARS m double
LOOKUP_TABLE default
1
1
1
1
1
1
1
1
1
1
1
1
1
1
1
1
1
1
1
1
1
1
1
1
1
1
1
1
1
1
1
1
1
1
1
1
1
1
1
1
1
1
1
1
1
1
1
1
1
1
1
1
1
1
1
1
1
1
1
1
1
1
1
1
1
1
1
1
1
1
1
1
1
1
1
1
1
1
1
1
1
1
1
1
1
1
1
1
1
1
1
1
1
1
1
1
1
1
1
1
1
1
1
1
1
1
1
1
1
1
1
1
1
1
1
1
1
1
1
1
1
1
1
1
1
1
1
1
1
1
1
1
1
1
1
1
1
1
1
1
1
1
1
1
1
1
1
1
1
1
1
1
1
1
1
1
1
1
1
1
1
1
1
1
1
1
1
1
1
1
1
1
1
1
1
1
1
1
1
1
1
1
1
1
1
1
1
1
1
1
1
1
1
1
1
1
1
1
1
1
1
1
1
1
1
1
1
1
1
1
1
1
1
1
1
1
1
1
1
1
1
1
1
1
1
1
1
1
1
1
1
1
1
1
1
1
1
1
1
1
1
1
1
1
1
1
1
1
1
1
1
1
1
1
1
1
1
1
1
1
1
1
1
1
1
1
1
1
1
1
1
1
1
1
1
1
1
1
1
1
1
1
1
1
1
1
1
1
1
1
1
1
1
1
1
1
1
1
1
1
1
1
1
1
1
1
1
1
1
1
1
1
1
1
1
1
1
1
1
1
1
1
1
1
1
1
1
1
1
1
1
1
1
1
1
1
1
1
1
1
1
1
1
1
1
1
1
1
1
1
1
1
1
1
1
1
1
1
1
1
1
1
1
1
1
1
1
1
1
1
1
1
1
1
1
1
1
1
1
1
1
1
1
1
1
1
1
1
1
1
1
1
1
1
1
1
1
1
1
1
1
1
1
1
1
1
1
1
1
1
1
1
1
1
1
1
1
1
1
1
1
1
1
1
1
1
1
1
1
1
1
1
1
1
1
1
1
1
1
1
1
1
1
1
1
1
1
1
1
1
1
1
1
1
1
1
1
1
1
1
1
1
1
1
1
1
1
1
1
1
1
1
1
1
1
1
1
1
1
1
1
1
1
1
1
1
1
1
1
1
1
1
1
1
1
1
1
1
1
1
1
1
1
1
1
1
1
1
1
1
1
1
1
1
1
1
1
1
1
1
1
1
1
1
1
1
1
1
1
1
1
1
1
1
1
1
1
1
1
1
1
1
1
1
1
1
1
1
1
1
1
1
1
1
1
1
1
1
1
1
1
1
1
1
1
1
1
1
1
1
1
1
1
1
1
1
1
1
1
1
1
1
1
1
1
1
1
1
1
1
1
1
1
1
1
1
1
1
1
1
1
1
1
1
1
1
1
1
1
1
1
1
1
1
1
1
1
1
1
1
1
1
1
1
1
1
1
1
1
1
1
1
1
1
1
1
1
1
1
1
1
1
1
1
1
1
1
1
1
1
1
1
1
1
1
1
1
1
1
1
1
1
1
1
1
1
1
1
1
1
1
1
1
1
1
1
1
1
1
1
1
1
1
1
1
1
1
1
1
1
1
1
1
1
1
1
1
1
1
1
1
1
1
1
1
1
1
1
1
1
1
1
1
1
1
1
1
1
1
1
1
1
1
1
1
1
1
1
1
1
1
1
1
1
1
1
1
1
1
1
1
1
1
1
1
1
1
1
1
1
1
1
1
1
1
1
1
1
1
1
1
1
1
1
1
1
1
1
1
1
1
1
1
1
1
1
1
1
1
1
1
1
1
1
1
1
1
1
1
1
1
1
1
1
1
1
1
1
1
1
1
1
1
1
1
1
1
1
1
1
1
1
1
1
1
1
1
1
1
1
1
1
1
1
1
1
1
1
1
1
1
1
1
1
1
1
1
1
1
1
1
1
1
1
1
1
1
1
1
1
1
1
1
1
1
1
1
1
1
1
1
1
1
1
1
1
1
1
1
1
1
1
1
1
1
1
1
1
1
1
1
1
1
1
1
1
1
1
1
1
1
1
1
1
1
1
1
1
1
1
1
1
1
1
1
1
1
1
1
1
1
1
1
1
1
1
1
1
1
1
1
1
1
1
1
1
1
1
1
1
1
1
1
1
1
1
1
1
1
1
1
1
1
1
1
1
1
1
1
1
1
1
1
1
1
1
1
1
1
1
1
1
1
1
1
1
1
1
1
1
1
1
1
1
1
1
1
1
1
1
1
1
1
1
1
1
1
1
1
1
1
1
1
1
1
1
1
1
1
1
1
1
1
1
1
1
1
1
1
1
1
1
1
1
1
1
1
1
1
1
1
1
1
1
1
1
1
1
1
1
1
1
1
1
1
1
1
1
1
1
1
1
1
1
1
1
1
1
1
1
1
1
1
1
1
1
1
1
1
1
1
1
1
1
1
1
1
1
1
1
1
1
1
1
1
1
1
1
1
1
1
1
1
1
1
1
1
1
1
1
1
1
1
1
1
1
1
1
1
1
1
1
1
1
1
1
1
1
1
1
1
1
1
1
1
1
1
1
1
1
1
1
1
1
1
1
1
1
1
1
1
1
1
1
1
1
1
1
1
1
1
1
1
1
1
1
1
1
1
1
1
1
1
1
1
1
1
1
1
1
1
1
1
1
1
1
1
1
1
1
1
1
1
1
1
1
1
1
1
1
1
1
1
1
1
1
1
1
1
1
1
1
1
1
1
1
1
1
1
1
1
1
1
1
1
1
1
1
1
1
1
1
1
1
1
1
1
1
1
1
1
1
1
1
1
1
1
1
1
1
1
1
1
1
1
1
1
1
1
1
1
1
1
1
1
1
1
1
1
1
VECTORS v double
1.6620266 -8.8865563 0
3.7713604 -10.022969 0
-1.2510294 -16.335375 0
17.230255 -0.50710787 0
18.811771 -1.7109885 0
-5.5450933 -0.041806854 0
-2.1327168 -23.01045 0
-1.0725614 -0.86050414 0
1.1292608 4.9210098 0
6.1206696 -6.0921241 0
1.8201619 -2.321058 0
14.027516 -7.0483359 0
2.8657748 -6.4230984 0
-4.0675318 -1.2167553 0
-5.3406025 -7.0030406 0
1.7103894 -4.2668906 0
5.4558471 9.3217795 0
-0.39000877 10.074945 0
22.059905 -0.12248846 0
-1.3261482 -0.70139036 0
5.3693793 -7.98238 0
-4.728116 6.3366648 0
11.55495 -3.3958138 0
0.20851595 22.962113 0
1.7490637 11.115621 0
8.8399697 -9.0826405 0
-0.25467113 -9.6376671 0
-8.9328206 -14.316331 0
-7.8571568 -8.1277102 0
-6.695506 -13.02495 0
-7.4396695 4.3189985 0
-7.6007806 -7.4226842 0
0.81038623 -30.586579 0
9.0741831 -9.4350608 0
-11.098707 -3.4880705 0
-11.651576 16.611612 0
-3.5481178 -5.184587 0
20.121538 2.19895 0
5.2695196 -4.4143612 0
-8.2181339 0.64927059 0
0.75120324 11.780373 0
8.5509922 5.404322 0
1.2417599 -6.493556 0
-5.2588625 7.0049133 0
-5.2781849 6.8033789 0
4.7460517 -0.46759267 0
1.7434162 12.835054 0
0.18182098 13.276033 0
1.4688879 13.66397 0
2.7020022 11.986366 0
3.3032493 -9.9600662 0
3.1086736 -15.900925 0
2.0211268 -19.898285 0
2.211845 0.33147344 0
10.755182 -12.551501 0
-0.72542984 -5.9650099 0
15.969637 -14.722748 0
13.716637 -1.7203189 0
-4.9423719 -0.79447554 0
9.0014321 -11.978156 0
2.073992 -10.774007 0
0.9405094 8.7244448 0
1.4321132 -9.0652655 0
4.6364763 -14.100878 0
18.579856 -15.582809 0
-1.06885 0.92653341 0
-1.045609 -3.3291148 0
0.03788099 -0.98723945 0
-3.3471576 3.7836437 0
1.1036848 3.7584102 0
2.8798319 -8.4459782 0
2.647188 -3.5568536 0
-3.6418532 -6.9563619 0
-3.4133134 7.658587 0
-6.8458162 0.37942434 0
3.9466542 -13.879275 0
-3.2999547 -4.9304635 0
-1.6275334 12.530959 0
5.1165269 -14.87354 0
8.6795365 -6.0744948 0
-8.4473883 1.1842378 0
15.232919 -3.0403707 0
3.5162128 -11.375402 0
13.433634 -8.9086551 0
-2.6332765 9.9197983 0
13.167437 -5.2506825 0
-1.496505 3.6272934 0
-9.8289887 -3.9750261 0
-8.0752971 -9.5076883 0
12.842702 -6.3552305 0
-1.6995701 4.2036093 0
4.283033 -3.9701041 0
6.2138548 0.28474288 0
-7.960089 -5.2910488 0
3.4448156 4.1783273 0
4.6103558 -7.0418312 0
4.5161631 -4.0024181 0
5.1392503 2.6389583 0
-0.0057688384 3.9143754 0
0.47110466 14.494984 0
3.3724486 -12.746328 0
-5.5351377 -14.739282 0
-1.4630505 -13.534515 0
1.8593138 -3.7761367 0
-8.2376864 -8.4672838 0
-7.7810804 -5.166013 0
-16.092007 3.634716 0
0.62067457 -4.383347 0
2.240244 0.13510763 0
1.477229 2.9001563 0
0.2706845 -14.729398 0
-6.5223358 -3.0912339 0
-2.2627872 -0.55281673 0
-2.3063326 -6.715327 0
-5.3904583 -1.436592 0
-0.9853904 6.0484597 0
19.123757 11.946816 0
-10.495456 0.42706504 0
1.0783334 -5.1464836 0
2.9804807 6.2366931 0
-5.2959903 1.9511012 0
0.48415012 10.938855 0
3.6356278 6.4162174 0
-2.416302 9.5825899 0
3.5462921 18.061387 0
-2.3653435 -9.0002583 0
0.063645585 -22.510158 0
-5.9512768 6.8335209 0
-5.6285924 -12.363098 0
1.5589437 0.059666221 0
-9.571724 -2.9269388 0
-7.7849626 -5.7659233 0
-8.4538959 -5.0714543 0
-3.0125966 10.826153 0
13.278683 -0.78529331 0
0.071813711 -4.1711208 0
-8.7252942 -1.9563028 0
4.6240391 6.6479735 0
0.99819622 -2.2956257 0
8.4868189 8.2107226 0
-5.13401 6.3512461 0
-1.485764 4.563587 0
6.9771907 4.8807457 0
1.9870972 7.9496931 0
-6.6941647 6.0255241 0
6.9432618 7.185174 0
0.7006641 5.1977384 0
10.447862 -2.6335075 0
2.7835908 9.3005066 0
0.60980988 13.176182 0
0.38077641 -11.117444 0
-7.1221573 -15.01762 0
-5.8998259 -18.948875 0
12.567707 -6.5500774 0
5.690171 -14.582873 0
-4.9867252 3.322298 0
-4.9039163 0.56386917 0
17.905991 -7.2768587 0
10.438502 -0.78819803 0
-0.81975166 -9.2127104 0
8.2096206 -7.2583342 0
3.6844825 7.8448879 0
-0.17542445 -0.84001764 0
-10.733765 6.4259648 0
-2.038834 -6.0484958 0
-1.1944406 -8.4892267 0
0.20207647 -2.4674794 0
12.416301 1.7825643 0
-4.1050651 9.0747892 0
-3.2405129 14.70636 0
-13.271153 10.728729 0
-11.961485 10.172385 0
6.4266385 17.637502 0
-6.1826065 0.59238822 0
-2.2838458 10.29057 0
7.9152496 -6.5258364 0
14.415075 -11.018917 0
0.10058403 -13.98776 0
-4.6115323 -8.9559 0
-15.789619 -2.5464999 0
-4.694035 -16.491851 0
2.7683982 -11.727891 0
-1.3821554 28.51152 0
-2.7501886 -0.6948132 0
-1.1572084 3.7628875 0
6.5110786 -0.0095503054 0
-11.83543 7.1377559 0
-1.8434054 1.0456368 0
-6.9763432 8.8157509 0
6.0253673 -3.8746018 0
1.3155767 1.6274414 0
-15.272086 11.984246 0
1.4304859 8.3288253 0
-6.4616151 7.0741594 0
22.405674 -5.7443634 0
-15.020511 -8.8596532 0
-7.8326258 10.731609 0
4.3095106 9.9579221 0
-6.625272 0.25896323 0
6.2745354 8.821453 0
3.1965367 -0.86113131 0
8.8563076 -3.3313789 0
-7.0106909 -15.925435 0
0.73110407 -25.594008 0
8.8991644 -18.8671 0
1.7609219 -0.86641864 0
-0.43420267 -2.8460941 0
6.3613744 -3.716328 0
-4.0805197 -3.2471255 0
-1.1837677 -2.6889238 0
-11.575876 -3.7647901 0
-1.797942 1.8544103 0
0.098215878 3.6514592 0
-5.2088903 3.9339792 0
7.4402274 2.2557807 0
6.5780377 15.353668 0
-0.18184083 -2.6816749 0
-6.6684801 8.8242594 0
0.051805083 12.784711 0
-0.20559011 0.92801741 0
8.4703678 -2.2418808 0
-0.25790129 2.0805911 0
-9.7139323 0.50408974 0
6.1952949 6.8317961 0
2.6446184 12.411851 0
0.47529242 -18.96047 0
-9.9740501 -15.061035 0
3.8615266 -18.094018 0
-3.2790984 -4.8092178 0
5.6537395 -11.544334 0
7.8946716 7.6131158 0
-0.017273777 2.6010783 0
0.7187494 -7.2078453 0
0.45034191 5.879708 0
-5.8205437 5.7474753 0
-16.2675 3.007284 0
-3.4142198 -1.3436963 0
-11.009964 7.5855477 0
-12.91102 -3.3079057 0
1.9153844 6.0215494 0
-0.93030694 9.0211186 0
6.2134847 -8.9123016 0
7.6663994 6.972383 0
2.9286913 -2.4518851 0
-3.1448833 12.107555 0
-4.7484598 14.488765 0
-0.21725243 13.172746 0
4.3012809 11.012601 0
5.7504329 7.5913087 0
-5.9235342 10.860505 0
-1.391671 -9.9783717 0
-0.0040822324 -5.0260015 0
4.268136 -5.7008042 0
11.069794 -25.457737 0
4.9616085 0.020330984 0
-4.0660221 -11.985437 0
5.4974117 2.3250123 0
0.2487034 -2.6871515 0
-7.078753 -3.966888 0
-5.0044772 5.7518443 0
6.1270012 -6.173441 0
-2.4759289 0.87529558 0
8.5532842 3.9475997 0
0.016976157 10.092677 0
8.9321742 3.6551779 0
4.4910751 -0.32027801 0
-12.791537 10.08972 0
-2.6422112 13.414232 0
-6.3500494 -7.4795915 0
-1.0565778 -2.4982019 0
-7.1871513 10.923717 0
-7.113915 -6.3339475 0
-5.1759347 0.9556365 0
0.75807246 -1.7321336 0
0.67067669 1.0141613 0
0.83131284 -12.772028 0
-3.1589787 -10.536264 0
-7.1710877 -1.2464773 0
-12.455812 1.0283743 0
1.1991771 -7.5994266 0
0.32000762 -7.9875469 0
-3.0263311 6.2905007 0
-6.5986459 -4.2462576 0
6.3942648 1.0912619 0
6.1530476 -12.610524 0
10.203769 -10.053727 0
5.341361 3.5793033 0
4.3528237 -9.94957 0
9.6368745 -8.9080398 0
-3.6204715 2.8795885 0
1.5766666 5.8461046 0
7.4877784 -9.3963041 0
-2.0025114 0.59778716 0
-14.103733 -0.29814713 0
-2.9282727 5.3288599 0
0.46246719 4.1514986 0
4.2543499 -1.2954632 0
-1.8161573 5.1428259 0
-5.9479709 8.3013333 0
3.3742083 9.8830455 0
4.3003076 -8.0793087 0
-3.289993 -10.259855 0
2.8623426 7.0252553 0
-3.6349547 -2.0307925 0
-0.59354531 -11.860125 0
-0.86613927 -6.1058553 0
-5.7370835 -10.72634 0
-1.8378251 2.8665141 0
2.3217052 -0.17092809 0
-4.235537 -5.1729947 0
2.1834196 1.0227143 0
0.42671942 8.0221087 0
-5.5225373 8.488604 0
-5.805303 9.0474069 0
5.2765901 -4.7938819 0
11.979384 -7.2830737 0
-13.760056 12.065733 0
-3.3425693 4.5428901 0
6.5656151 -8.2563083 0
15.697056 5.9561084 0
-0.62735536 5.029041 0
5.1107057 9.2370626 0
-1.2700421 13.009303 0
-4.5505272 9.4721969 0
4.6944646 19.014266 0
0.3433636 -14.635457 0
6.1297028 2.1761051 0
-11.670442 -9.520437 0
3.8602172 -11.337277 0
-2.1954547 4.2444501 0
-7.5711573 1.1822188 0
-4.2570367 -9.6127883 0
-1.8522485 -1.9643665 0
3.1549937 4.558432 0
-20.735697 -6.1296101 0
-3.3138914 6.0916055 0
-9.8904162 -2.1147661 0
8.0692796 1.3711736 0
-2.8724822 -7.3583296 0
4.6434201 -0.91096657 0
12.077734 2.1256829 0
18.940596 4.7672367 0
-3.3605881 -11.996405 0
4.795318 4.4519692 0
-10.858196 3.3162528 0
-6.4538547 -3.8988243 0
-8.7722718 4.4255916 0
21.600552 -10.250416 0
0.92446503 11.820836 0
5.9413601 17.889677 0
-2.4330517 -13.181407 0
2.2112783 -15.76166 0
7.2625559 0.97210475 0
1.7386168 -9.6139974 0
-0.68929122 -6.9272458 0
-1.4859981 -1.5021166 0
2.1843867 -5.0660608 0
-9.4308898 -4.851782 0
6.1032276 7.3824761 0
1.0580501 4.146176 0
-3.4781205 7.4794179 0
6.7697928 -6.1099883 0
5.4901543 -0.47580206 0
1.5712964 1.2570518 0
5.6485143 11.652591 0
-7.5860855 -2.7263283 0
-6.7152147 -3.6266951 0
2.0579824 8.2548413 0
7.5084172 -2.3667945 0
-4.9450003 10.043466 0
7.5967734 -5.8414116 0
12.330867 10.469568 0
4.4170474 -7.1318548 0
-4.0329355 9.2131886 0
-1.1618522 11.48133 0
-7.0833587 -8.748776 0
6.0661113 -6.825749 0
-6.2233443 3.9442949 0
-0.96980171 -2.2592046 0
-3.131594 -9.9192671 0
0.87926882 -21.487618 0
2.1814581 6.9691246 0
-3.2190575 -10.326278 0
2.9170485 -19.782109 0
-5.8878276 -1.8964688 0
-3.5096259 2.6124313 0
8.6728707 6.173099 0
1.7026025 0.32939496 0
21.540636 4.9711263 0
-6.4253375 -5.0939875 0
5.1509798 5.0423677 0
14.214705 7.5841016 0
-10.723701 -11.361167 0
-0.22753116 5.8110947 0
-0.33733382 6.8158986 0
-0.4978881 2.1309174 0
3.055938 5.7789774 0
-0.28250953 12.872382 0
-4.3143662 7.9804249 0
-1.2088629 3.6327636 0
8.0560651 -6.6373341 0
0.374684 10.327879 0
-2.3166114 -12.465034 0
-8.0976416 -10.738605 0
-2.0549061 -0.60575069 0
-2.9099698 -15.437665 0
3.3597695 -1.5199267 0
-4.9018069 0.68210169 0
3.4836094 0.27132285 0
-4.2533026 2.3924582 0
13.355544 2.6047688 0
9.5288486 -11.105504 0
7.4922217 -4.5846029 0
-13.650766 -3.8613099 0
0.24033502 2.994555 0
6.710562 -5.3379347 0
-11.916165 -5.6508406 0
-8.9180692 -5.8411465 0
-7.7905138 -7.5288774 0
-0.44422534 15.437004 0
-4.4137605 3.8525339 0
-5.9234546 7.4666471 0
-5.3036949 2.5914521 0
-4.0431143 15.915328 0
8.720235 11.628791 0
-13.253033 -11.429478 0
5.437665 0.5014675 0
-5.4625872 -5.8195651 0
-12.462138 4.4928795 0
-10.094538 -4.847388 0
-12.885145 2.9286562 0
2.2689125 8.8475649 0
0.011812575 6.2878441 0
1.9460182 -6.2957997 0
2.6881852 -4.3061417 0
-13.206225 -0.44392462 0
0.72544118 -0.95612165 0
-6.9120973 -8.94489 0
2.8879572 -1.8253606 0
-6.0843594 8.9390711 0
-3.8928758 11.48187 0
-2.1939557 15.939262 0
-7.9075949 -0.99064513 0
-4.3767138 0.32163089 0
4.2742464 4.2193278 0
-3.1689847 4.8551642 0
11.565306 11.374737 0
-7.99814 9.7252264 0
9.6049834 6.7300225 0
-0.58221245 10.097608 0
-5.7579413 -8.9721165 0
3.6735051 -16.745813 0
1.5571406 -12.268809 0
1.3800128 -1.0316131 0
4.6189668 -1.5293397 0
-0.99195657 -0.40903364 0
1.2793419 -10.818609 0
5.3990656 -5.2100447 0
0.47076282 -5.3369448 0
8.1327458 0.76426635 0
-4.4786804 3.2613934 0
11.640048 9.8721974 0
6.7397611 -2.8313996 0
7.108462 0.42108389 0
5.1355392 4.9681417 0
-8.667116 13.443907 0
-10.998484 4.885782 0
0.44951713 6.5877487 0
-6.3413094 0.66272555 0
-10.978558 5.266101 0
-15.447775 8.5525822 0
-1.9187264 11.572626 0
-7.3061905 -1.7830114 0
-4.2153352 0.8832381 0
9.2474642 4.758636 0
5.3817152 -11.854349 0
1.6986707 -8.0939787 0
-4.0392282 -3.6939007 0
-9.2848377 -5.8308339 0
-8.4089271 -5.1201619 0
-7.9056364 -1.7934065 0
-2.2912183 -11.048918 0
-4.0732032 -3.9188894 0
9.4937045 -8.1188484 0
3.2171072 -4.973441 0
-7.4266567 -5.7028992 0
-7.5290436 1.8950659 0
-2.2926582 6.9370952 0
5.4435317 -1.4031909 0
-1.3145769 -0.84304346 0
1.8946813 7.8259809 0
-1.4348412 -1.6169071 0
-1.8336995 2.2003308 0
-7.6429991 4.1714926 0
-14.579031 8.2141435 0
-11.549834 4.605073 0
-9.169729 0.14814502 0
1.3035383 -2.4839546 0
-11.10496 1.0376845 0
-2.2441795 9.6854934 0
-3.588144 -10.0137 0
1.9632428 3.5326988 0
-3.8490535 -8.3737238 0
3.1577291 -12.225919 0
9.1276784 2.5121536 0
-16.611701 -15.650165 0
13.011023 -4.5106718 0
-5.3881717 4.1547169 0
2.9676705 -5.1232126 0
0.041882035 -0.53631085 0
0.072205532 11.887744 0
-1.7037701 -4.3248491 0
-4.1701039 14.064431 0
-9.0160989 -5.937144 0
-5.5124874 -3.9450935 0
-3.6465163 1.8215055 0
-8.7495033 9.1969312 0
-8.9068224 3.1214696 0
4.5137139 7.4254399 0
5.782656 2.1564621 0
-6.5201977 1.6924092 0
2.2906195 4.8287187 0
-5.0301848 -0.076433724 0
-6.2105977 5.9593885 0
0.086571581 14.898283 0
2.8664967 -21.749398 0
-4.648371 3.6781421 0
-0.26332236 4.0605163 0
-1.8034607 6.7879165 0
-1.5927987 -16.05341 0
-3.0248381 8.9294102 0
-5.1861953 -4.0783857 0
-0.75655305 -6.744825 0
8.6716583 7.0958164 0
-9.125624 -3.3280163 0
-3.0148948 1.321969 0
-1.6675053 -1.6928835 0
2.0992383 7.0887123 0
18.701692 -5.4315067 0
1.7344358 -10.244923 0
-2.0538824 7.1998676 0
9.1245801 -11.713971 0
-3.8884889 0.45865636 0
-5.1268042 -4.0749514 0
-1.0907002 7.2792315 0
-2.2531545 9.6173863 0
4.1304102 2.4493235 0
-7.7368205 -4.579424 0
-5.9016242 9.8268529 0
-5.0202506 -0.63646708 0
-2.8947421 0.03219675 0
-9.8738984 -0.0074839044 0
7.0567516 -7.5061965 0
-10.783473 -0.96958374 0
-13.198737 -4.5122178 0
-0.72419454 -21.21801 0
2.4815527 4.9361783 0
11.169281 5.3333801 0
8.0709843 4.2159574 0
-7.8513026 5.7674317 0
-7.2802393 -11.572092 0
4.7370212 4.1128487 0
3.3760247 10.047281 0
5.9526975 -4.3264319 0
-3.0668733 -7.2690913 0
-1.9214435 1.5759591 0
4.8716417 8.5510006 0
3.9357405 -0.34691191 0
1.0072158 0.92392851 0
6.1579707 13.284762 0
-9.7413684 -5.173977 0
4.2890463 5.4681754 0
-10.294998 11.405753 0
-9.7785605 0.87752797 0
-7.220151 -2.3925893 0
-10.00624 0.043370613 0
2.0951881 -1.1114366 0
5.2760126 3.3696264 0
8.750271 -7.1919044 0
6.5884683 0.032729072 0
8.4435845 -11.914589 0
-10.090398 0.28965017 0
2.2631736 4.5555398 0
-8.9176611 5.7265631 0
4.0419731 1.6886533 0
10.599462 2.49946 0
13.278404 4.7780659 0
-3.5090857 6.5499745 0
-5.871744 2.167218 0
4.6404572 0.79819505 0
3.0171511 8.4950225 0
-3.0700887 4.8808058 0
11.203741 -4.0162803 0
-6.9067303 -5.8133246 0
0.8129727 -9.7651751 0
4.3184884 -0.33248518 0
-0.92016059 13.893809 0
-4.7846126 3.8839575 0
0.62213801 6.8153891 0
-10.000159 -0.019974594 0
-13.511248 -12.093457 0
-5.5753055 -1.2467643 0
-11.247238 -0.509145 0
-9.7538094 0.033352454 0
-5.8265384 1.9856037 0
-8.2115598 2.5331806 0
7.7466992 -5.528986 0
7.8969595 -13.721178 0
-10.442775 -2.9148904 0
12.987481 4.2343805 0
5.1903323 -12.146658 0
0.35096776 -1.5608998 0
6.1646433 -0.099838842 0
2.2927328 -2.8142395 0
-3.2674134 10.350898 0
-2.2216633 -3.097972 0
-4.4645396 1.749969 0
-5.4238176 1.1916993 0
-3.173436 9.6283441 0
-0.82054548 7.203264 0
-9.5850722 -0.63517572 0
-10.011208 -0.011545402 0
-10.046546 -0.0063426672 0
-3.3371294 -8.1407893 0
-9.9557678 -0.10995197 0
9.3664052 -3.8409628 0
-6.5056189 3.1977122 0
4.0667402 -11.191319 0
6.0934589 -10.257681 0
-0.65456939 -10.432787 0
4.4288166 -5.0383423 0
-5.3470697 8.5072415 0
8.61417 -4.2706171 0
14.264729 -3.7711818 0
-4.5903607 -5.282225 0
0.58234656 0.37938204 0
17.318129 -3.6084111 0
-13.466484 10.260803 0
-11.695969 10.508664 0
2.2983171 17.672676 0
-8.8626754 5.159831 0
-1.1110354 9.833997 0
-13.578209 2.3722889 0
-6.1438826 14.928656 0
1.4018849 12.572708 0
-8.0543931 13.847399 0
3.3066322 8.3126272 0
619808.48 -383949.33 0
-2.6282259 22.954801 0
-4.4983419 10.081675 0
-1.2977138 -13.925508 0
-2.0500817 0.03421646 0
-5.2044059 -7.1212292 0
3.1737849 -14.107659 0
-2.1538306 -23.189481 0
-3.8425063 -20.131575 0
0.96572752 3.8279109 0
4.0524273 -3.7604316 0
2.2451869 0.54047254 0
3.2837696 -4.3861101 0
-9.3257499 1.1913135 0
-4.3075581 -8.7647902 0
1.962941 -7.8716422 0
0.1049472 -1.0962621 0
8.9424656 9.6827488 0
0.81377151 3.5634739 0
-6.7465484 5.8811536 0
0.60711915 -2.5158968 0
19.999337 6.9780083 0
-6.8023436 22.641989 0
-3.3039207 11.780238 0
-5.1876942 1.8391259 0
8.640629 10.722934 0
-5.4786256 5.4583165 0
-1.4739132 21.821435 0
8.2354312 -6.0208538 0
-0.30744114 -13.62341 0
2.2905789 -7.4513422 0
1.5332637 -10.902443 0
-5.1546593 -2.8697174 0
8.1404405 0.37398257 0
-1.3084872 -3.1726101 0
2.398945 -10.5453 0
-8.9357318 10.399398 0
-1.3365559 -0.50195909 0
-2.7872375 -9.7458958 0
12.786721 -10.053642 0
1.3707356 4.3492998 0
-0.45830329 -2.7278427 0
-4.1249958 1.4990577 0
9.1705157 5.0447283 0
9.5688143 -1.4464576 0
10.795115 10.774701 0
15.468091 -5.5385173 0
1.8610503 -1.6698315 0
4.2229618 20.67162 0
-2.295043 11.492531 0
-0.41396831 9.7927999 0
-6.5884273 10.470789 0
-4.6358228 4.685378 0
-6.5486377 -6.7367944 0
-1.9603102 -10.561236 0
0.37557743 -10.99673 0
2.3532164 -5.0321621 0
7.1586759 -6.2033057 0
-4.5471102 -9.1150628 0
14.958891 -5.1884145 0
6.774813 -1.416002 0
-2.9976877 -6.2346496 0
5.4285947 -6.4949501 0
3.9288075 4.9333784 0
2.4736266 1.2905088 0
11.942212 -0.070791541 0
5.3402828 -2.8862515 0
-6.3755307 7.422526 0
-8.605865 -11.994106 0
15.341573 -9.7819184 0
8.4094927 -0.57606872 0
11.341038 -4.1881414 0
0.42972075 -3.1622305 0
8.1048988 -3.9609646 0
2.1997674 15.958353 0
7.4572324 12.507307 0
-2.0969934 -2.4400474 0
7.0375338 8.292723 0
9.2042503 -9.7197032 0
6.8119897 -1.1854922 0
-2.7889252 -0.34645096 0
8.0559556 1.0524581 0
7.8996391 -29.429093 0
1.5494323 -4.5874421 0
-17.221453 -6.5466648 0
3.8225946 1.5075924 0
-1.7150919 4.1382645 0
9.2664801 -11.033042 0
0.79732279 4.9920403 0
-10.780312 1.2109896 0
-2.5349224 -7.0050414 0
-3.5298861 -2.0371052 0
-616227.85 387734.05 0
6.7130276 1.8466315 0
7.0666764 -1.8182596 0
6.7523115 6.8225528 0
-6.2185219 10.295535 0
-0.34115206 10.108722 0
-5.8005926 6.7237044 0
1.3660485 23.702128 0
-0.22978466 16.78334 0
4.4694094 16.235857 0
-3.8680534 4.2972101 0
5.5390571 -15.659254 0
1.3703332 -13.17821 0
5.1026785 -19.951134 0
-5.2852889 -11.548532 0
3.6638767 -16.136978 0