# vtk DataFile Version 4.0
hesp visualization file
ASCII
DATASET UNSTRUCTURED_GRID
POINTS 1250 double
27.834603 -5.8055601 4
27.592106 -4.149131 4
31.143844 -4.9460793 4
27.124574 2.466686 4
31.3017 6.4203833 4
33.671274 3.5432351 4
33.154871 -2.4415325 4
36.681589 11.337181 4
30.500378 13.16007 4
30.067787 8.693783 4
34.361517 12.096623 4
31.12852 10.96978 4
31.746675 11.850403 4
31.264571 14.359161 4
29.302855 20.505372 4
34.461706 13.9017 4
27.418587 25.443419 4
29.675387 19.609561 4
30.508122 22.143936 4
31.199901 30.97422 4
30.199951 25.098995 4
31.293507 26.779728 4
31.543626 21.601847 4
30.773708 46.421878 4
30.815238 38.201071 4
42.534499 -10.94573 4
26.760174 -3.7100933 4
25.759831 -7.9632516 4
30.566298 1.7776327 4
27.831245 7.1469024 4
27.662928 2.7675851 4
26.338254 -0.49127067 4
26.780526 0.57947218 4
28.575244 1.926407 4
28.219516 4.3399337 4
28.312657 9.8629784 4
34.558977 8.7283715 4
29.728936 15.86544 4
29.275228 11.364231 4
32.68714 12.068577 4
27.69846 22.662794 4
28.414829 13.297743 4
26.256637 17.962891 4
34.170051 18.549759 4
32.075434 24.867752 4
28.835112 31.476761 4
31.203569 20.762557 4
30.397545 31.804456 4
30.405564 41.704501 4
30.420466 33.090205 4
31.404775 -5.3340499 4
31.310938 -13.506163 4
30.104681 -2.9517536 4
34.388799 2.7145033 4
38.116745 -7.1853501 4
35.417165 2.8747401 4
30.671962 -3.7872676 4
35.163527 10.511644 4
33.540834 10.431174 4
33.020203 9.8597054 4
30.190925 7.4686279 4
29.073458 10.137507 4
31.720145 11.508333 4
33.442714 7.8638647 4
32.344945 12.343542 4
31.703989 12.211712 4
31.3138 16.374206 4
36.613168 21.089819 4
31.09926 16.704691 4
27.752286 30.686493 4
28.126565 21.345772 4
36.39729 22.623996 4
31.064656 18.911891 4
34.307936 31.881698 4
31.821481 26.806686 4
38.108077 -17.152687 4
29.948451 -3.7174713 4
31.418241 8.3087355 4
34.923628 -7.6939613 4
26.397915 5.751559 4
29.519284 8.1978399 4
26.564219 9.3665011 4
32.496588 9.8946471 4
29.6099 11.40123 4
31.263573 8.8581441 4
29.579964 14.471607 4
32.636112 8.1949092 4
30.651302 15.382149 4
33.081138 18.08257 4
30.483852 10.691659 4
31.370196 17.842651 4
28.40224 14.853355 4
33.5325 13.242262 4
32.136151 19.526509 4
29.218425 21.896676 4
36.496452 11.920342 4
29.41063 23.060033 4
28.672773 27.1641 4
29.892359 29.093563 4
32.617977 46.072421 4
35.605943 -11.989126 4
27.313255 -12.220253 4
34.815722 2.3268462 4
34.919432 6.9570165 4
24.250723 -4.890078 4
26.846436 6.5834761 4
31.31412 4.1935693 4
28.208075 2.5917373 4
35.927302 7.7358168 4
35.834242 3.8740933 4
31.65641 7.3017326 4
34.572082 5.0641488 4
35.097133 12.479206 4
31.616943 9.9332115 4
35.180733 15.131401 4
37.93586 18.045309 4
32.857398 15.05968 4
30.659377 17.127365 4
31.462783 18.630186 4
36.342126 21.125632 4
31.987651 27.165749 4
34.378893 27.284492 4
36.230137 25.897063 4
31.82925 30.257172 4
31.413253 28.372127 4
28.084819 -9.4598218 4
27.162563 -10.941044 4
36.52719 9.5119761 4
34.745219 5.6777793 4
31.787312 2.2557377 4
36.048305 8.6728182 4
31.720595 6.3800837 4
36.264054 6.3662589 4
34.802177 12.153647 4
38.37411 16.363016 4
34.673686 15.243148 4
35.948011 15.965116 4
31.904884 20.574572 4
39.568026 16.331719 4
30.728683 13.357962 4
33.671747 24.145473 4
32.503864 21.86838 4
34.653226 24.082795 4
35.042078 27.62403 4
36.354554 30.58866 4
31.687314 31.413023 4
32.159527 19.809572 4
29.546987 29.363716 4
36.079341 37.040974 4
28.176928 31.481604 4
31.056032 2.9523487 4
25.449501 -14.614683 4
34.988857 0.27516178 4
30.653141 -2.9474041 4
30.930274 -0.85468636 4
30.504909 5.7676857 4
29.962729 5.7182526 4
33.177411 8.9043893 4
31.536942 10.260545 4
28.031766 10.727328 4
37.5307 12.250693 4
30.92864 13.509086 4
31.04371 11.348549 4
34.019977 16.450831 4
29.80151 18.258267 4
27.750409 15.73626 4
30.963943 19.898644 4
29.006451 22.20658 4
34.785726 27.813338 4
32.703869 22.138506 4
31.001128 25.426423 4
31.817881 26.447884 4
31.532265 30.984593 4
33.107749 26.266626 4
26.371247 35.942994 4
44.757006 -7.0070214 4
31.35765 -1.4710643 4
32.834127 -7.1392696 4
32.114631 5.584136 4
34.728781 9.4836106 4
27.835363 -7.4890485 4
35.224964 8.3463615 4
26.205189 6.8060467 4
35.707694 5.1739317 4
36.474622 7.2991013 4
32.968603 12.394497 4
29.887399 13.975564 4
35.285733 21.700714 4
33.900675 10.867011 4
35.991697 15.434104 4
33.830192 18.916595 4
36.470417 15.976921 4
30.74842 22.749881 4
35.794718 21.295492 4
29.330516 22.721117 4
31.320606 19.919925 4
28.20154 33.419463 4
34.269755 31.391737 4
33.36862 29.839327 4
42.570706 38.626468 4
31.616968 5.4332464 4
33.10857 3.3011764 4
32.383629 0.46560188 4
33.490659 -9.4102926 4
31.136875 0.64272643 4
30.527301 4.1413367 4
34.481893 3.7901473 4
35.716428 9.3970386 4
35.1784 11.48025 4
35.728677 11.481589 4
31.946705 17.049944 4
32.639414 19.354794 4
30.51121 15.054693 4
30.429648 14.26744 4
35.792621 22.48543 4
37.257498 18.249256 4
31.360068 12.848438 4
32.202645 9.8042293 4
31.275856 14.85021 4
35.697359 19.090878 4
36.886314 24.94117 4
36.911013 28.884127 4
33.378358 22.134104 4
36.488095 32.206317 4
33.357371 29.385686 4
33.570135 -1.3588328 4
25.566797 -4.6883996 4
36.058298 -1.9303603 4
34.109307 11.327511 4
30.897359 3.7741921 4
33.971785 7.3061332 4
35.229318 7.6266191 4
38.258568 8.7634766 4
35.468764 13.728172 4
39.093674 9.7229606 4
34.009057 12.816632 4
30.716468 12.712793 4
32.738365 17.441342 4
36.272589 12.302607 4
32.406365 17.572297 4
33.289994 19.338621 4
35.796276 19.523461 4
33.607286 26.724154 4
33.43675 21.510645 4
34.758604 25.513591 4
32.487983 24.520231 4
31.445769 26.176033 4
31.975914 29.513819 4
34.698035 31.649819 4
25.296694 33.147207 4
26.141297 -7.9618622 4
32.286185 -1.355431 4
32.336191 0.12711463 4
28.788019 -1.4340817 4
40.568114 4.9859668 4
33.83083 3.0258637 4
35.395439 7.9445313 4
34.660862 2.6835226 4
36.286757 8.3898842 4
35.465486 11.394548 4
34.769937 16.011324 4
37.311924 14.699715 4
41.332324 11.939225 4
39.421028 9.8395936 4
31.861369 17.562234 4
31.286739 18.288339 4
35.990912 14.595382 4
29.926352 21.262685 4
34.172795 19.95852 4
36.306869 23.595894 4
36.32136 27.263152 4
31.631318 21.020309 4
34.360255 23.308544 4
29.620314 29.705178 4
29.347652 33.436416 4
38.12777 -12.031133 4
29.258913 -1.9412919 4
29.444549 4.2229768 4
37.288182 5.7159593 4
35.370206 6.2851016 4
40.320379 5.7862593 4
35.417245 5.9233157 4
31.32437 9.1481413 4
36.111591 11.292056 4
31.919187 10.829887 4
35.027017 14.359136 4
32.62076 13.457249 4
34.851708 18.480597 4
31.739758 14.253109 4
37.958306 21.777844 4
36.671006 21.358278 4
34.30937 19.352348 4
33.535287 21.74521 4
32.981681 22.892016 4
34.002015 20.539589 4
33.765955 25.375236 4
34.694496 24.580008 4
30.089623 31.650069 4
29.85373 37.608714 4
40.313454 37.922051 4
33.665948 -3.5209088 4
34.329081 2.0650635 4
33.093933 1.5996575 4
29.597004 5.2676414 4
33.566607 4.3487167 4
35.483684 -1.0300068 4
36.873303 7.6483536 4
38.353065 10.684502 4
38.755998 9.6010888 4
32.177127 10.522065 4
37.520012 9.1375516 4
33.643759 13.470226 4
34.33098 16.061394 4
32.080384 15.186583 4
33.57997 16.135573 4
49.210515 15.933099 4
35.010242 24.202632 4
34.645897 23.6924 4
33.597973 22.541987 4
39.266343 30.337509 4
35.701902 29.835097 4
35.972635 26.589277 4
36.755566 28.350025 4
33.929028 35.615803 4
32.969908 37.547394 4
34.698624 -6.6343626 4
33.506391 -0.40755608 4
36.467022 3.5318523 4
33.688307 4.7344676 4
30.941122 1.6355779 4
38.607489 6.866165 4
33.815044 6.3895234 4
36.779149 8.372656 4
34.463603 6.4552571 4
33.898272 7.0118038 4
38.260856 10.109533 4
35.729929 12.848135 4
30.855851 14.815376 4
37.362908 14.37048 4
39.023706 18.579543 4
36.686504 14.36258 4
38.703112 18.364562 4
36.520645 17.644117 4
35.948724 17.68858 4
36.699117 22.171448 4
36.722554 23.841449 4
33.970351 23.329329 4
34.288889 25.314734 4
38.60233 33.726112 4
34.179965 34.734208 4
37.243635 1.5865071 4
34.338585 -8.9119215 4
35.237923 1.717062 4
33.752916 2.12786 4
34.13098 3.2325309 4
36.098035 6.0600884 4
34.883846 4.5432472 4
32.133878 7.136733 4
36.429913 14.481739 4
36.634974 7.7698519 4
34.716359 16.329951 4
35.432084 12.472823 4
39.179384 15.913494 4
35.321227 16.619256 4
34.457031 18.374218 4
33.024283 18.995595 4
35.920079 18.243562 4
37.733783 20.743597 4
35.914807 22.881884 4
35.153849 25.969388 4
34.856954 25.803971 4
32.710129 29.422187 4
37.254134 21.357122 4
34.470656 33.338839 4
37.506237 31.111758 4
33.939265 -0.062828151 4
36.890325 -0.66348878 4
33.274805 1.7833375 4
31.854057 5.2766593 4
35.18233 4.5982569 4
38.109853 9.1949656 4
35.817913 11.707403 4
37.711759 12.582464 4
36.82226 10.325235 4
38.823464 14.772865 4
35.774763 16.280561 4
37.682308 16.410098 4
35.344964 19.168248 4
39.12487 19.262287 4
35.256191 17.653853 4
40.190977 17.384156 4
36.355428 17.901555 4
36.172415 18.108181 4
39.256934 15.330689 4
38.493886 19.484979 4
37.101239 20.483282 4
37.848048 28.909188 4
38.279009 32.440288 4
32.802264 26.336706 4
30.620954 32.114902 4
37.786115 -0.079079885 4
36.633128 2.385441 4
33.885694 -1.0918923 4
37.076868 3.6325731 4
35.009574 5.5173525 4
36.388373 7.767784 4
40.58107 10.527141 4
36.31431 5.682836 4
34.681887 7.9369674 4
36.754271 12.331321 4
32.862039 16.649625 4
36.545103 10.515665 4
35.440784 13.060581 4
36.833089 18.621548 4
37.511698 17.34576 4
36.699539 15.654315 4
35.317157 17.294938 4
35.605611 20.919044 4
37.876274 20.490643 4
35.069504 24.465012 4
35.298102 25.342068 4
35.24233 24.893071 4
36.5703 25.248531 4
31.367769 32.768209 4
33.768327 29.84924 4
36.404934 0.31984215 4
37.767772 1.4803335 4
36.082721 2.9089516 4
36.684382 2.995763 4
38.189063 5.1231501 4
36.676788 6.0972216 4
37.897559 7.8435617 4
37.163217 10.233727 4
36.019288 10.899243 4
38.224711 13.616045 4
36.970871 15.057032 4
37.794938 15.156957 4
38.957549 14.485135 4
36.860051 17.966116 4
34.646639 18.177229 4
38.84213 22.920975 4
36.914283 19.803325 4
36.776462 20.5346 4
37.247284 22.231378 4
40.132882 22.1587 4
37.571058 24.149321 4
37.372592 23.031334 4
35.768829 27.432446 4
36.824033 24.599106 4
36.848398 31.052805 4
36.220506 -1.6091899 4
35.951585 2.307123 4
[...]
POINT_DATA 1250
SCALARS m double
LOOKUP_TABLE default
1
1
1
1
1
1
1
1
1
1
1
1
1
1
1
1
1
1
1
1
1
1
1
1
1
1
1
1
1
1
1
1
1
1
1
1
1
1
1
1
1
1
1
1
1
1
1
1
1
1
1
1
1
1
1
1
1
1
1
1
1
1
1
1
1
1
1
1
1
1
1
1
1
1
1
1
1
1
1
1
1
1
1
1
1
1
1
1
1
1
1
1
1
1
1
1
1
1
1
1
1
1
1
1
1
1
1
1
1
1
1
1
1
1
1
1
1
1
1
1
1
1
1
1
1
1
1
1
1
1
1
1
1
1
1
1
1
1
1
1
1
1
1
1
1
1
1
1
1
1
1
1
1
1
1
1
1
1
1
1
1
1
1
1
1
1
1
1
1
1
1
1
1
1
1
1
1
1
1
1
1
1
1
1
1
1
1
1
1
1
1
1
1
1
1
1
1
1
1
1
1
1
1
1
1
1
1
1
1
1
1
1
1
1
1
1
1
1
1
1
1
1
1
1
1
1
1
1
1
1
1
1
1
1
1
1
1
1
1
1
1
1
1
1
1
1
1
1
1
1
1
1
1
1
1
1
1
1
1
1
1
1
1
1
1
1
1
1
1
1
1
1
1
1
1
1
1
1
1
1
1
1
1
1
1
1
1
1
1
1
1
1
1
1
1
1
1
1
1
1
1
1
1
1
1
1
1
1
1
1
1
1
1
1
1
1
1
1
1
1
1
1
1
1
1
1
1
1
1
1
1
1
1
1
1
1
1
1
1
1
1
1
1
1
1
1
1
1
1
1
1
1
1
1
1
1
1
1
1
1
1
1
1
1
1
1
1
1
1
1
1
1
1
1
1
1
1
1
1
1
1
1
1
1
1
1
1
1
1
1
1
1
1
1
1
1
1
1
1
1
1
1
1
1
1
1
1
1
1
1
1
1
1
1
1
1
1
1
1
1
1
1
1
1
1
1
1
1
1
1
1
1
1
1
1
1
1
1
1
1
1
1
1
1
1
1
1
1
1
1
1
1
1
1
1
1
1
1
1
1
1
1
1
1
1
1
1
1
1
1
1
1
1
1
1
1
1
1
1
1
1
1
1
1
1
1
1
1
1
1
1
1
1
1
1
1
1
1
1
1
1
1
1
1
1
1
1
1
1
1
1
1
1
1
1
1
1
1
1
1
1
1
1
1
1
1
1
1
1
1
1
1
1
1
1
1
1
1
1
1
1
1
1
1
1
1
1
1
1
1
1
1
1
1
1
1
1
1
1
1
1
1
1
1
1
1
1
1
1
1
1
1
1
1
1
1
1
1
1
1
1
1
1
1
1
1
1
1
1
1
1
1
1
1
1
1
1
1
1
1
1
1
1
1
1
1
1
1
1
1
1
1
1
1
1
1
1
1
1
1
1
1
1
1
1
1
1
1
1
1
1
1
1
1
1
1
1
1
1
1
1
1
1
1
1
1
1
1
1
1
1
1
1
1
1
1
1
1
1
1
1
1
1
1
1
1
1
1
1
1
1
1
1
1
1
1
1
1
1
1
1
1
1
1
1
1
1
1
1
1
1
1
1
1
1
1
1
1
1
1
1
1
1
1
1
1
1
1
1
1
1
1
1
1
1
1
1
1
1
1
1
1
1
1
1
1
1
1
1
1
1
1
1
1
1
1
1
1
1
1
1
1
1
1
1
1
1
1
1
1
1
1
1
1
1
1
1
1
1
1
1
1
1
1
1
1
1
1
1
1
1
1
1
1
1
1
1
1
1
1
1
1
1
1
1
1
1
1
1
1
1
1
1
1
1
1
1
1
1
1
1
1
1
1
1
1
1
1
1
1
1
1
1
1
1
1
1
1
1
1
1
1
1
1
1
1
1
1
1
1
1
1
1
1
1
1
1
1
1
1
1
1
1
1
1
1
1
1
1
1
1
1
1
1
1
1
1
1
1
1
1
1
1
1
1
1
1
1
1
1
1
1
1
1
1
1
1
1
1
1
1
1
1
1
1
1
1
1
1
1
1
1
1
1
1
1
1
1
1
1
1
1
1
1
1
1
1
1
1
1
1
1
1
1
1
1
1
1
1
1
1
1
1
1
1
1
1
1
1
1
1
1
1
1
1
1
1
1
1
1
1
1
1
1
1
1
1
1
1
1
1
1
1
1
1
1
1
1
1
1
1
1
1
1
1
1
1
1
1
1
1
1
1
1
1
1
1
1
1
1
1
1
1
1
1
1
1
1
1
1
1
1
1
1
1
1
1
1
1
1
1
1
1
1
1
1
1
1
1
1
1
1
1
1
1
1
1
1
1
1
1
1
1
1
1
1
1
1
1
1
1
1
1
1
1
1
1
1
1
1
1
1
1
1
1
1
1
1
1
1
1
1
1
1
1
1
1
1
1
1
1
1
1
1
1
1
1
1
1
1
1
1
1
1
1
1
1
1
1
1
1
1
1
1
1
1
1
1
1
1
1
1
1
1
1
1
1
1
1
1
1
1
1
1
1
1
1
1
1
1
1
1
1
1
1
1
1
1
1
1
1
1
1
1
1
1
1
1
1
1
1
1
1
1
1
1
1
1
1
1
1
1
1
1
1
1
1
1
1
1
1
1
1
1
1
1
1
1
1
1
1
1
1
1
1
1
1
1
1
1
1
1
1
1
1
1
1
1
1
1
1
1
1
1
1
1
1
1
1
1
1
1
1
1
1
1
1
1
1
1
1
1
1
1
1
1
1
1
1
1
1
1
1
1
1
1
1
1
1
1
1
1
1
1
1
1
1
1
1
1
1
1
1
1
1
1
1
1
1
1
1
1
1
1
1
1
1
1
1
1
VECTORS v double
1.6616978 -8.887053 0
3.6578202 -10.049826 0
-1.2955004 -16.305929 0
-5.7302359 -3.1875707 0
1.2994645 -14.987841 0
-0.41390019 -3.9196126 0
3.0442658 -23.443928 0
-9.75086 -2.4136875 0
-1.0458264 2.4522486 0
-8.0175176 -4.2692954 0
-1.5368049 0.88911922 0
26.21285 -1.3822951 0
9.9917443 -2.12736 0
-9.5931626 -0.52308123 0
-2.8959639 1.4174443 0
5.7854033 -8.0816953 0
-8.9527175 7.2192765 0
-6.9994964 -11.402307 0
-2.4090105 -6.8985624 0
0.20951088 3.1906362 0
-10.296714 16.834166 0
12.224484 10.201219 0
11.096898 1.0193979 0
0.20850153 22.962119 0
1.7607865 11.109168 0
8.8399697 -9.0826405 0
-0.23961577 -9.6525191 0
-0.83204847 -13.136826 0
-0.73385958 -1.3783099 0
-2.2401573 5.5121291 0
-2.5622685 2.6133962 0
-7.5611789 -7.1728132 0
12.395644 -43.659545 0
0.83753409 -4.1821923 0
4.0336168 -14.060203 0
-15.339765 -8.5846501 0
9.8394465 -13.878466 0
-3.0593478 4.9750492 0
4.3379194 -6.0030303 0
0.78609769 -3.5173174 0
7.9316111 8.4838149 0
2.0284578 -1.1163265 0
-0.78144972 1.7801286 0
2.1796158 -1.8668615 0
0.044713858 -2.9914173 0
0.3916394 11.145157 0
-0.9980986 6.7958075 0
8.4959967 1.182032 0
1.4688809 13.663973 0
-1.6367637 3.7027134 0
9.1112276 -13.184094 0
3.1086713 -15.900935 0
4.2797214 -7.2237106 0
-2.0962632 -7.76398 0
10.755244 -12.55147 0
10.959806 -6.5698854 0
3.7285715 -12.730113 0
2.7964825 1.9825801 0
-4.1780048 -9.829722 0
10.656756 -5.6561612 0
1.5593956 -5.2901548 0
-6.0025464 1.4093486 0
-6.0674711 -8.9819647 0
-1.2728817 -5.4575961 0
-5.5453281 3.3548086 0
-17.027838 5.284959 0
-6.4812296 -4.9988835 0
1.330504 3.6258723 0
2.0857009 -2.3515952 0
5.9230209 4.8254489 0
-6.1714635 -2.8334779 0
2.2391029 5.2846491 0
-0.41341273 -0.68343578 0
-2.0319037 5.6461553 0
-5.957843 4.0397188 0
3.9466542 -13.879275 0
-3.3195705 -4.9497456 0
-2.5257423 4.4835561 0
5.116839 -14.874186 0
2.595991 -1.7926578 0
-9.5725481 -4.029094 0
-9.9188631 -12.206216 0
3.2977052 -4.9602203 0
-18.302541 8.6558933 0
21.533002 1.7093996 0
-9.6645719 1.290627 0
-6.7693205 -6.8373469 0
-7.772156 7.2008349 0
6.1508873 -9.9736375 0
3.1384392 -16.920786 0
8.9207436 -8.8264693 0
12.88832 -4.7315656 0
5.230828 -3.7719989 0
-4.4707718 -2.6359484 0
-5.3842936 10.736771 0
1.1884813 -18.534845 0
-1.2188575 -3.6788095 0
5.3162401 2.6060754 0
-1.6677204 8.2909529 0
0.47111909 14.494978 0
3.3724311 -12.746329 0
-5.5576813 -14.755586 0
3.1668999 -8.556272 0
1.8964693 -3.7714613 0
-8.0275243 -8.7950268 0
-4.2729373 2.1042241 0
-1.1767178 -2.1665756 0
3.1509089 6.3145207 0
5.7169076 -16.848107 0
-1.8782463 3.287227 0
-0.88452026 -1.7926207 0
-2.8268153 -11.1887 0
-1.5308874 -14.964384 0
4.906427 -1.9608465 0
2.6702009 8.1022262 0
-12.118073 1.1344367 0
4.6056726 -13.606202 0
2.2279561 -10.920683 0
6.5890337 -0.82557053 0
0.98632783 10.369728 0
-4.3358009 3.5735702 0
2.4328395 8.63551 0
0.23840285 -5.9432318 0
-2.6625276 9.4513708 0
6.2049635 1.6158932 0
-2.3605706 -9.0027096 0
0.086532484 -22.494186 0
6.8726451 6.6087856 0
-3.1338467 0.94805689 0
1.5528866 0.054256255 0
14.815903 14.778342 0
8.5508375 -14.84989 0
1.491562 -5.3801893 0
2.863474 11.202232 0
13.234584 25.175187 0
2.2453055 -0.93972017 0
0.94380688 0.77736826 0
4.635353 8.0595209 0
2.0021933 -4.5324697 0
9.9307067 -2.4962591 0
-1.8251011 1.5878847 0
-3.044926 15.648704 0
16.282587 5.7425958 0
1.6092486 -4.9720392 0
-1.0096112 10.629841 0
6.9778728 7.1945696 0
4.4228602 -1.6887948 0
-6.8398647 2.5865966 0
2.7835354 9.3003874 0
14.713584 11.706439 0
-4.0552663 9.855648 0
-7.1221573 -15.01762 0
-6.2499421 -14.133771 0
-3.8625061 -9.4061232 0
-1.0472924 -7.9052744 0
-9.7982047 -5.0763586 0
2.1548261 8.662615 0
3.1966372 -2.5678211 0
0.22753098 2.2790117 0
-0.048509077 2.1344554 0
7.33295 6.095832 0
-5.9812771 0.65396197 0
-0.84126014 -1.3047812 0
-1.1529815 -2.0525486 0
-30.486393 10.719016 0
-1.5778809 -1.6168821 0
-8.0216868 0.55523319 0
-2.8079904 10.13039 0
-2.1150414 11.190056 0
-5.9118824 10.659727 0
5.133997 9.8458134 0
13.601556 3.4996476 0
-10.972883 13.457296 0
9.9264614 4.5986773 0
-2.2838776 10.290634 0
7.9152496 -6.5258364 0
4.0932538 -8.5367121 0
0.10044431 -13.988788 0
1.3827929 1.4529107 0
7.9869012 -11.845975 0
-4.6984462 -16.489773 0
-3.1752525 9.6971524 0
-10.97581 -5.6365297 0
-8.7914354 -9.7329835 0
-9.7036205 -10.646089 0
3.9999478 -9.300015 0
-7.5432744 -9.0872433 0
-3.1165404 5.7543958 0
3.4862833 -5.9618218 0
-10.640445 0.30559875 0
-2.0374611 -1.2906548 0
4.6559349 5.3683414 0
3.5725285 6.8199414 0
4.7788783 -3.0642006 0
7.6306357 12.606964 0
-3.4761717 -13.740989 0
-7.8394835 10.75941 0
2.7741095 12.012509 0
-6.2232284 -0.78874371 0
6.2745372 8.8214536 0
-9.5001818 -0.50307651 0
11.749471 -3.8109862 0
-1.3738807 1.1097601 0
6.0203112 -18.671262 0
7.9148904 -19.724108 0
-0.9564066 3.5674552 0
-1.5071916 -12.194024 0
0.66385491 -13.685475 0
-3.6264305 2.5473661 0
8.4747478 -10.700926 0
-12.527759 1.3336135 0
1.2067226 -0.79905966 0
0.22053122 10.202296 0
-12.86021 -1.480953 0
11.310201 8.1165526 0
-7.0014532 -7.3033434 0
-2.3526953 -5.8488005 0
4.8987444 -13.914497 0
-5.5825931 7.1185328 0
-6.0779314 10.978786 0
9.5403727 5.2201856 0
3.909262 3.7067114 0
-5.8370069 -3.9183066 0
6.302393 7.0175743 0
6.8136319 12.930729 0
2.7176175 -1.0423173 0
-10.011569 -15.052811 0
3.8403079 -18.212777 0
0.63099829 4.5680066 0
-12.279361 -8.4931189 0
-3.2382195 -8.8482436 0
9.3695932 15.934332 0
4.9540324 2.9457616 0
0.14690107 6.8118884 0
4.3268888 -14.485342 0
-2.3936205 -5.0705551 0
0.82284461 -5.2360948 0
-4.0715446 -8.2628294 0
9.1849275 -3.0001072 0
5.4330782 7.1427776 0
-9.8195907 -1.6062813 0
-8.4173296 1.5274985 0
-11.629687 6.0530117 0
2.8593773 1.9214831 0
-4.4271779 7.2097602 0
-0.69691078 -3.5883553 0
-13.761445 -4.5126132 0
11.548094 5.0736915 0
5.8072147 7.707835 0
-5.9266737 10.851659 0
-9.4530633 -11.167848 0
-1.5126706 -9.2842366 0
4.2805111 -5.8217275 0
-11.512687 -2.6732005 0
4.9684083 0.01691575 0
-11.295781 -1.4431476 0
2.5669574 -0.21169655 0
-6.2897228 -0.29810817 0
-2.0101304 -4.0714215 0
-7.5653227 18.651265 0
-0.14970733 12.728524 0
-9.0718142 5.4132682 0
-13.610967 -6.5284502 0
-2.1986896 -2.0438999 0
6.0317601 7.3144489 0
10.983039 -3.8923471 0
1.9844069 -0.99953693 0
-12.634912 4.3961624 0
3.1139806 -4.8417638 0
-7.4057272 8.065193 0
-4.9443203 2.3899325 0
-14.298258 -4.5361161 0
-4.753827 0.91405013 0
-9.1860501 2.2913817 0
0.24292274 0.92369352 0
0.8313356 -12.772029 0
12.040698 -17.155813 0
-10.307142 -10.192401 0
4.7612793 -4.1873554 0
6.3250336 4.0231808 0
-9.5826769 0.52581825 0
-1.6418973 -3.8360707 0
-5.7275452 -9.2921163 0
-4.4128927 0.34385671 0
5.5929425 -12.311388 0
3.0843091 7.2147228 0
1.3664413 2.7240833 0
-7.9162431 3.2883398 0
-7.4574855 -0.40688674 0
-1.9704995 -6.6952963 0
6.8801515 1.927971 0
6.7621291 -8.0334255 0
-4.6384341 3.1252829 0
0.15478134 4.7934387 0
3.1274866 16.433785 0
-1.9364496 2.3717424 0
-10.210312 1.1329363 0
-2.7030412 9.6980109 0
-4.8688204 24.889112 0
3.3742065 9.8830449 0
-0.83967566 -7.6406103 0
-5.6421228 -7.1972741 0
-8.4947504 -0.66321736 0
-5.3613646 4.1438034 0
-11.492595 -6.7045886 0
-6.2816636 -6.3261607 0
3.6718116 -0.77026275 0
14.064804 0.32077729 0
8.7538906 0.44712647 0
-10.456122 -1.9613501 0
13.578546 -10.653371 0
-6.4367316 10.942907 0
-3.9450301 0.66731488 0
-4.3717339 2.2830422 0
-5.1752639 -0.098381283 0
11.979384 -7.2830737 0
-6.6351144 10.386576 0
-3.0439126 4.8701407 0
8.3405212 2.363534 0
15.697183 5.9554787 0
-0.55313818 5.0724565 0
-13.70875 8.789934 0
-6.3367304 2.095283 0
-4.567366 9.5558431 0
4.6985789 19.014437 0
0.34312588 -14.634932 0
3.7031778 -4.4719318 0
-1.7443399 6.6178558 0
0.93982247 -7.1758624 0
-1.750817 4.4531551 0
2.127325 -11.642674 0
11.725548 2.5097583 0
-8.9208335 -6.6658381 0
-7.6886073 -4.7627912 0
-1.6836532 -6.4850611 0
6.1095321 -4.6900143 0
7.5817656 4.0545742 0
0.89301132 -17.660835 0
-1.3991894 -6.7504066 0
4.8654233 2.2662749 0
6.9027394 -8.4593443 0
-5.1446788 19.666222 0
-6.2627024 10.253759 0
17.772156 9.2071366 0
-4.4626955 0.31761382 0
0.91432108 15.015153 0
-6.1882177 -2.0275779 0
-6.2977049 4.7156171 0
0.92484127 11.821684 0
-2.9846573 14.124248 0
1.0569832 -13.953057 0
-3.0776247 -22.684438 0
0.3272635 -19.821229 0
6.9712839 -2.9494116 0
5.4190154 -5.5218639 0
-7.8874707 -8.6245416 0
-6.3989921 -3.1829091 0
-10.985585 -6.1842262 0
4.0591359 8.5806099 0
-12.997662 -2.0835862 0
-22.235039 0.13915214 0
3.6701046 0.35787125 0
4.2116062 -0.41544278 0
0.5490515 4.9587024 0
-15.092938 1.6466301 0
-9.0949488 2.8876464 0
-8.4716132 -10.405573 0
2.7903625 -4.082856 0
2.0327776 9.4288067 0
-3.1699849 7.5553423 0
-16.081916 8.9361485 0
-1.9132934 3.7204114 0
6.0957455 2.956942 0
-4.0322828 9.2131688 0
-1.2635207 11.299591 0
-4.5865253 -3.8518532 0
4.6820128 -0.8833262 0
-4.4447651 4.8612291 0
-17.728413 0.20562497 0
-1.9775697 -2.7341183 0
3.3124935 1.7609331 0
-3.0582583 4.8504621 0
-3.2516663 -0.53196478 0
-5.7214529 -17.357297 0
-4.3618389 -1.7392016 0
8.1092823 0.59856407 0
-0.99045484 7.2027339 0
1.3918394 3.0108576 0
-11.360374 6.5850596 0
-13.011009 -9.5423606 0
-13.646268 -8.3661668 0
-2.7730649 -6.3348324 0
-8.1659249 -2.2907682 0
-8.9602664 -11.716413 0
4.8312977 0.52322349 0
0.93820162 1.5108305 0
-1.0570945 4.2048153 0
-0.28271909 12.871847 0
-8.6759546 2.2487233 0
-9.9174584 3.1645478 0
8.0642385 -6.6739938 0
-3.5569646 3.7053479 0
-10.401517 -10.782154 0
-2.4070267 3.7119017 0
-8.1071285 3.0606545 0
4.7873011 -4.4208241 0
1.6040756 -1.4013112 0
1.0951562 -6.7048751 0
-2.5028079 -3.8184163 0
-5.8860413 6.4082786 0
-5.6322016 11.794848 0
-0.64683823 -2.280307 0
5.0271298 -4.6905239 0
-0.16431227 7.9747598 0
0.72421285 3.5916795 0
3.4152543 -4.3474681 0
-6.205353 1.4681989 0
1.2435638 8.4888139 0
-7.7230222 -6.6432535 0
-6.9211772 5.7385261 0
-3.8403217 1.8067981 0
-0.018535909 6.118603 0
-3.4450427 -0.29179873 0
-9.3969994 10.616617 0
3.2860667 1.7684504 0
-13.386464 -11.183631 0
1.8313138 2.7005433 0
-3.8347318 9.0466023 0
1.7923964 -9.2460219 0
3.5032234 -3.2802432 0
-2.22965 2.9462492 0
-7.2550332 1.9196007 0
-3.7289754 2.7142608 0
-8.7949046 -10.500978 0
-4.1971741 4.3590273 0
4.4746669 9.8802625 0
-1.0285583 -2.0992962 0
-11.277386 -8.1713742 0
1.4376195 2.696951 0
-0.9861567 -9.5387011 0
-10.11918 5.5841165 0
-0.19007654 1.0511196 0
-7.2933806 -0.18969983 0
0.29955782 0.31998804 0
-3.3368693 -7.0619046 0
1.147476 2.3063445 0
-4.1830269 5.4508791 0
2.329592 12.014873 0
-7.7887296 -10.971338 0
-6.175793 5.3631434 0
-5.7339888 -8.8547129 0
-3.5724693 -2.2661352 0
-5.3303168 -9.8972322 0
0.32294199 -0.72454642 0
-0.21015281 5.7819528 0
-7.2861403 5.7917289 0
0.28253619 -7.4214386 0
3.1835044 8.5734836 0
-5.9151256 1.0965925 0
2.9830469 -0.20853697 0
-4.5944247 3.1568246 0
11.642029 9.8717402 0
6.7403354 -2.8326107 0
5.8692115 5.1720577 0
6.3741422 0.2272438 0
-8.7737911 -4.5189007 0
6.7917894 -0.14852448 0
0.71833982 6.7810146 0
-2.1467646 -2.7780647 0
-2.7943597 3.2315317 0
-8.7921056 6.4285677 0
0.70988781 -5.7616363 0
-4.2475129 -3.3918728 0
-6.4272825 -1.5047074 0
-1.2925051 10.909892 0
-10.356513 -1.8837246 0
2.0803697 -8.0189568 0
-0.32657714 2.0268229 0
-8.8406797 -7.1128058 0
-3.9597883 6.8300043 0
3.8488654 -6.5196135 0
6.5532872 -9.5473501 0
7.8363926 -1.5741355 0
-7.0809082 -3.3987195 0
2.6807267 -17.179337 0
4.3743078 -5.0681286 0
-12.471424 5.1726471 0
-5.8472718 17.193967 0
-2.5872016 -2.5564187 0
2.1147691 0.044385996 0
-5.5311776 -0.86927202 0
-6.9218411 1.5186676 0
2.0407149 -9.6926276 0
-3.0961879 4.0853352 0
-9.1615487 -0.48459564 0
-8.6838428 4.119585 0
-9.7915493 0.013377029 0
-2.7849354 3.8312332 0
-4.3774018 3.7879057 0
-2.2417131 9.6851338 0
-2.2330885 -6.8115744 0
4.7796899 -4.1556834 0
-6.5684329 -7.4634558 0
-6.2658891 -3.2508386 0
-1.0842985 5.0823726 0
0.41782591 -3.0493794 0
-7.8751781 -3.2340179 0
-3.7381462 -4.1665583 0
4.8154771 1.445165 0
0.324536 9.2900348 0
-4.7101936 22.877223 0
-0.57758813 9.9596053 0
0.32799393 10.59298 0
2.6262611 10.068116 0
-14.071341 -10.395708 0
-3.3926572 -1.3829987 0
7.5946993 -0.83431986 0
5.689897 9.4286027 0
-1.9077449 -5.6101855 0
-2.6973868 -7.8529596 0
-2.4152717 8.7600077 0
0.053985048 -5.3203116 0
-5.9764589 0.54708482 0
-3.9295439 10.630074 0
-2.2600092 6.5758976 0
-8.6792521 2.101082 0
-10.052438 0.10268123 0
-9.9948717 0.03103191 0
-9.4472149 0.65539995 0
-10.085931 0.0060118199 0
-9.883354 0.14000393 0
-8.6038187 -9.1696855 0
-8.9870603 -3.6072195 0
-7.440447 3.7208303 0
-10.05888 0.65806528 0
-7.2937756 -1.9433857 0
-2.7593824 1.3629045 0
4.1248387 0.0006251158 0
9.4054182 5.0262031 0
-13.584223 1.8779476 0
-0.21865226 -2.2906849 0
5.0029193 -12.629557 0
1.4537814 -2.9481318 0
-2.8507612 -3.246035 0
1.673613 20.793164 0
-9.9659549 -0.035381679 0
-11.890416 0.98130988 0
3.0402871 3.5174365 0
-10.071959 0.18409042 0
-9.7391762 1.133971 0
-10.001369 0.015957192 0
-10.000473 -0.00046771846 0
-10.001993 0.0012068452 0
-10.00188 0.063549789 0
-9.9827186 0.10336252 0
-8.0751308 -4.0868478 0
-6.5450253 1.2517707 0
13.266608 -7.8120878 0
-7.943884 8.2954485 0
-9.9303905 -0.076750832 0
-7.4249364 7.3377793 0
-3.1823366 10.131143 0
-4.3719157 -2.59762 0
5.6565759 4.8905181 0
2.4989743 8.8755246 0
-7.4406533 -0.70753438 0
-10.464858 16.372417 0
-6.8481654 6.2382947 0
-10.074997 -0.14259037 0
6.7100291 12.657377 0
-10.654172 -0.31931281 0
-10.813694 1.1686924 0
-9.9972468 0.00057157481 0
-9.9902853 0.044007958 0
-10.009986 -0.056674499 0
-9.998952 0.014927938 0
-9.9996869 -0.00020277922 0
-9.9996782 8.5135107e-05 0
-10.007469 0.048787335 0
6.5900089 0.033714154 0
-0.7859469 4.3537549 0
-10.0016 0.00052572554 0
-9.9398972 -0.86018832 0
-10.014254 0.12544125 0
2.2055844 -4.8790936 0
-9.5212045 -0.5872597 0
14.803942 -21.482109 0
-8.2131911 -5.566325 0
-9.0692471 3.6891575 0
14.054245 -9.4459673 0
1.3389731 3.867592 0
-3.4630238 4.7353458 0
-12.098405 2.2869138 0
-10.000195 -0.0084560455 0
-2.816703 -5.865888 0
-9.9535481 -0.13775598 0
-10.003923 0.0056587581 0
-4.6280367 3.7180799 0
-10.217857 -1.2313455 0
-10.000329 -0.018285307 0
-10.01334 0.014096851 0
-10.014828 -0.00017675888 0
-10.014814 0.00061323634 0
-9.9899787 -13.542104 0
-10.018554 -0.005325322 0
-10.026358 0.004973336 0
-10.015052 0.00083185278 0
-9.8687302 -1.4660207 0
-10.00602 0.022348136 0
-10.057813 0.018868713 0
-1.558825 -4.5198325 0
11.818176 -8.3316635 0
6.1831583 -0.085895844 0
2.1544985 -3.0481246 0
-10.051985 -0.28076093 0
-10.014663 0.038190563 0
-10.017895 -0.012982469 0
-6.6250859 -4.9128132 0
-0.82867008 0.31447164 0
-10.017383 -0.00091237795 0
-10.015369 -0.00015525624 0
-10.014863 9.5605426e-05 0
-10.01892 0.0015864147 0
-3.3178412 -8.1654119 0
-10.014321 -0.014914062 0
9.3664052 -3.8409628 0
7.9639422 0.82829017 0
10.223413 -19.41791 0
6.9272783 -11.332744 0
3.9776148 1.5413875 0
5.2124966 -5.1638127 0
-3.4534421 -1.9167599 0
6.9611339 -2.2997827 0
11.125266 9.145043 0
8.0437614 -0.31022981 0
-6.5176692 -5.0354845 0
0.36337609 4.4161435 0
2.4359456 -2.2442218 0
1.6491874 1.5817082 0
6.9927983 7.383971 0
-1.4586747 -0.20747166 0
2.1445222 1.5583496 0
15.03651 0.067908158 0
-6.1441427 14.928518 0
2.4907567 13.244748 0
-10.7588 10.969726 0
3.3216243 8.394512 0
619808.48 -383949.33 0
-2.6282259 22.954801 0
-4.4977613 10.082856 0
-1.2981331 -13.925549 0
-1.6374405 -0.27005183 0
7.1795896 -4.1839608 0
0.72897404 -25.574395 0
3.1661742 -7.4159788 0
-5.3969087 -13.236313 0
7.9061179 -5.519744 0
3.2150144 -14.418607 0
-4.2645467 -3.1408118 0
-9.5626979 7.9417725 0
-2.0716275 6.3362562 0
-3.3960908 -14.30891 0
4.8843016 -1.2756204 0
-4.8828097 -8.5270732 0
9.286765 9.4352757 0
0.0061705047 5.820483 0
11.479499 -1.4448419 0
2.6504317 0.33190125 0
6.1025581 11.520289 0
-7.5259349 12.442276 0
-3.0470781 11.902535 0
-7.0829878 4.6015419 0
-5.7099539 -4.6946747 0
-7.0003606 1.5368787 0
-0.11997373 9.3396369 0
8.2354371 -6.020841 0
-1.2568315 -7.9032544 0
2.2949342 -7.3206578 0
2.1066788 -3.3773625 0
7.5429404 -2.8601927 0
-0.83732894 5.7588881 0
8.0639875 -9.3153882 0
3.8821164 3.6493222 0
7.8687807 2.0984115 0
0.6402306 -13.034591 0
7.4644561 -13.060919 0
6.836425 2.7424526 0
-0.047626976 3.2730384 0
9.9233713 -12.94975 0
11.74675 0.4572136 0
6.3702745 -5.7652819 0
5.3013924 1.9265266 0
-1.214295 -4.9809182 0
12.197273 2.2185505 0
7.0891685 9.1267458 0
4.0500976 10.055633 0
-1.9724482 11.633299 0
-0.44682016 10.146637 0
-6.5552546 10.532495 0
-2.5843824 -0.65102113 0
-6.5485614 -6.7367889 0
-1.9606936 -10.560963 0
-5.8980397 -7.9268559 0
2.5269615 3.9234988 0
-6.1496616 -1.7174832 0
-1.0274866 -1.2121192 0
-3.2078018 -7.7940974 0
8.1777234 -9.877053 0
-3.1018481 -4.7629307 0
-8.2499503 -3.9139397 0
3.3275913 -3.433176 0
-2.9961976 8.3054648 0
-2.4681921 8.466893 0
6.8022018 7.0292654 0
8.3159494 0.43433356 0
-1.8205305 0.603196 0
-18.795118 -15.123639 0
7.4120573 -6.8231838 0
23.568451 7.521399 0
-9.1502571 17.195741 0
0.80600814 -3.2003929 0
-4.5808094 8.0760612 0
7.3823116 4.5995358 0
-1.5982542 -12.637652 0
7.0375764 8.2928092 0
8.3784579 -8.6837825 0
-1.3062674 -19.652002 0
-2.5099111 7.6440946 0
18.162833 -15.215165 0
7.2891326 -8.6826524 0
0.091402483 -5.725884 0
-4.4404486 -6.3079411 0
-4.862137 -3.0539768 0
6.5997301 -3.0342206 0
9.3842268 -11.538685 0
2.591706 -2.3570485 0
-10.782092 1.2104381 0
12.644421 -7.8515817 0
15.877767 3.5895304 0
-616227.85 387734.05 0
10.613098 9.6322715 0
6.2281236 6.3970537 0
5.4335195 11.271733 0
3.4673068 4.3467851 0
8.9442292 10.736975 0
0.48894626 11.328619 0
1.3613931 23.701044 0
-0.22974612 16.782485 0
2.3574752 13.876745 0