# vtk DataFile Version 4.0
hesp visualization file
ASCII
DATASET UNSTRUCTURED_GRID
POINTS 1250 double
27.500073 -2.6607322 4
28.22408 -1.6440867 4
31.427589 1.061624 4
28.033958 6.2742023 4
29.073104 4.8643572 4
34.536808 5.9637599 4
33.844523 2.0384481 4
36.028878 11.763976 4
29.60377 11.085137 4
28.294022 9.1412622 4
33.700352 10.840917 4
29.579416 12.695439 4
29.921509 12.922672 4
33.273972 12.316052 4
27.983796 19.230437 4
33.311922 16.145586 4
26.95165 22.161022 4
32.899837 22.460423 4
29.314397 21.067835 4
30.707621 27.339319 4
29.218671 24.271614 4
31.605247 25.23146 4
31.400325 22.848317 4
30.696572 37.925895 4
30.171083 34.098326 4
39.263709 -7.5851534 4
26.55469 1.1280817 4
27.313878 -4.4064184 4
29.556249 5.2478524 4
28.994105 5.164833 4
29.175979 3.4784654 4
29.625293 1.6176985 4
25.712123 5.9604721 4
27.951766 6.8301465 4
28.072742 8.9069575 4
28.470716 10.172136 4
32.013763 11.505359 4
28.669877 17.504162 4
25.990612 14.2998 4
32.165559 13.234199 4
27.73931 22.089992 4
29.15478 15.670918 4
26.227505 20.393679 4
34.485347 17.784343 4
33.728646 21.687709 4
29.843052 28.809485 4
31.052123 20.936229 4
27.055529 30.1057 4
29.86207 36.6488 4
31.168555 31.163452 4
27.957897 -0.89074636 4
30.160726 -7.6228109 4
29.746675 0.20034414 4
32.788495 5.0193744 4
34.137091 -2.541036 4
33.655719 3.835396 4
29.276655 0.9347533 4
31.227343 8.395772 4
32.592352 11.24461 4
33.391159 11.389327 4
29.800455 9.2850775 4
29.980626 10.309073 4
31.878146 11.807465 4
33.463567 10.617453 4
32.705958 12.409199 4
32.071298 13.001102 4
30.347939 15.790231 4
35.272218 19.905137 4
30.211758 17.059296 4
28.569564 25.692691 4
27.515258 19.348694 4
35.004711 21.399898 4
30.157811 19.734924 4
33.911915 29.743689 4
30.995594 26.363085 4
36.647815 -12.017355 4
31.1982 -1.8699701 4
31.523222 6.4615923 4
33.047479 -2.2102761 4
27.05932 6.8173351 4
30.084755 9.7839047 4
27.102457 9.4965854 4
32.193056 12.194476 4
28.72858 11.241657 4
33.165363 11.260017 4
29.412578 14.803589 4
31.152813 9.6635201 4
29.540536 14.268522 4
32.120349 17.526615 4
32.592828 13.800731 4
32.462775 15.302311 4
29.2409 17.586095 4
32.996966 14.621252 4
31.135187 18.772911 4
30.276123 19.385691 4
35.080597 17.674593 4
30.545961 22.415942 4
30.305198 25.067057 4
29.982998 26.05167 4
32.443652 40.709278 4
34.358144 -7.2729844 4
29.369562 -6.7605368 4
36.440089 4.237232 4
33.07227 8.0545065 4
27.103391 -1.666368 4
30.37093 8.3164821 4
32.835496 5.7410555 4
30.089444 3.9688603 4
33.603099 7.1239395 4
33.166475 7.1033813 4
33.595972 7.8920094 4
31.802824 8.4305094 4
34.157837 12.735316 4
32.904098 9.9387027 4
33.646373 13.655307 4
37.067295 17.804521 4
33.389935 17.25276 4
29.878225 19.37573 4
30.809987 18.584533 4
36.099092 18.467721 4
33.345543 26.424224 4
32.715144 23.79039 4
36.41476 23.222594 4
32.899089 26.727387 4
30.528619 27.867186 4
28.958167 -6.1289433 4
27.1108 -2.6227059 4
34.929642 7.5642103 4
36.713821 5.6695498 4
33.505054 2.9879974 4
30.10087 10.848579 4
32.851932 9.0120264 4
35.891368 9.7801877 4
35.322036 10.954409 4
35.442118 15.993247 4
35.001435 16.487274 4
37.597238 15.463142 4
32.147871 18.922987 4
37.486884 17.792373 4
30.291593 14.571157 4
32.3258 23.617403 4
32.7766 19.931658 4
33.36815 22.463405 4
34.496447 24.823551 4
33.650828 26.53393 4
32.119718 29.829796 4
33.183023 21.250245 4
32.311364 28.573124 4
35.049425 33.599846 4
25.121302 29.12549 4
31.998202 4.9388657 4
28.084699 -9.0581636 4
35.279267 4.4253823 4
32.097446 0.52945914 4
31.256845 2.0951187 4
29.03079 5.9668615 4
31.970857 6.5455544 4
31.950816 9.6384381 4
31.551933 12.102513 4
29.141939 10.1422 4
33.450841 13.182168 4
29.057702 13.543107 4
30.767824 12.718487 4
34.661614 16.436718 4
29.910766 14.850987 4
31.063015 16.694699 4
30.133474 18.047209 4
31.644122 21.045038 4
32.718932 24.893701 4
31.504279 21.671526 4
30.687674 24.38693 4
34.239951 25.649506 4
33.277749 27.064351 4
35.143498 24.06928 4
27.715622 32.284967 4
41.828363 -4.5924619 4
30.219219 1.6420489 4
32.800037 -1.9648056 4
35.016087 5.0542335 4
33.14011 10.763867 4
29.573565 -1.3876423 4
32.99246 7.3112488 4
27.711186 6.9736768 4
37.169685 7.3012971 4
37.151231 9.5000757 4
32.280503 12.749187 4
31.262896 12.557378 4
32.905855 17.684314 4
32.916385 13.629825 4
37.568129 14.079345 4
33.625536 20.791039 4
36.245856 14.992529 4
31.494162 23.083259 4
34.173663 21.068708 4
29.887749 22.706552 4
32.07338 21.149045 4
29.468255 28.884876 4
35.141641 28.575168 4
31.891657 29.154447 4
40.249119 35.362526 4
33.172914 3.0104527 4
33.080968 2.7069395 4
33.947198 1.3247265 4
31.263162 -2.5017183 4
31.814522 3.8282998 4
32.57651 3.3350655 4
35.074432 6.2949306 4
35.729985 10.358782 4
34.435839 11.649475 4
36.192677 12.125657 4
35.110724 16.787228 4
33.950694 16.70312 4
30.953326 15.000364 4
32.241103 13.638261 4
34.59601 18.505339 4
37.712138 18.865049 4
30.834764 14.76022 4
31.502008 13.566782 4
33.363694 15.381882 4
36.062104 19.968258 4
34.176431 25.342654 4
35.541513 27.362109 4
35.354965 23.318239 4
35.373999 29.264115 4
32.144881 27.520482 4
32.540771 -0.96612305 4
28.061713 0.71011659 4
34.834394 0.9960391 4
33.808624 9.6198891 4
32.208531 5.9737279 4
34.829195 7.9251735 4
35.013644 6.9667488 4
36.246971 9.3861189 4
34.967702 12.247939 4
36.514848 14.020016 4
34.882416 13.06659 4
32.418648 17.213068 4
33.73508 17.19639 4
36.038598 14.234645 4
32.50492 17.45692 4
36.486654 19.731494 4
36.205087 20.408777 4
35.502296 25.183298 4
34.05055 21.453947 4
37.161689 23.585802 4
32.927816 25.635756 4
34.04159 25.839732 4
32.920127 27.725798 4
32.520567 28.786548 4
28.161821 29.781489 4
29.608167 -3.8287015 4
32.659132 1.168721 4
32.56499 2.0888603 4
32.855688 -0.010160346 4
38.730522 4.9122692 4
34.26142 3.6666429 4
36.978557 6.7214889 4
35.169718 6.0405188 4
35.188612 9.8757515 4
35.683227 8.7648879 4
35.423267 14.155607 4
36.320874 14.314285 4
38.562767 11.421983 4
38.476533 12.134928 4
33.098529 16.393167 4
31.82073 18.221669 4
34.92982 14.123169 4
33.980142 20.760567 4
34.285122 20.466606 4
35.694662 20.694797 4
38.018438 26.453715 4
34.234208 21.99706 4
33.960047 23.438888 4
32.963012 28.578956 4
29.537323 32.8682 4
37.820177 -7.3054822 4
31.005241 0.33390522 4
32.297317 3.7088894 4
36.902116 5.450974 4
33.66742 6.3757238 4
39.132783 6.0286125 4
34.483293 7.3772735 4
32.485713 9.2741083 4
34.859981 9.439538 4
32.969072 8.4432602 4
33.574815 14.608326 4
34.380932 14.069471 4
35.782353 16.764292 4
34.527012 13.588689 4
37.313065 18.896257 4
36.46495 21.535464 4
34.344973 20.108802 4
36.76027 22.46512 4
35.648711 22.664948 4
32.74241 19.19994 4
33.173464 22.703927 4
35.769094 23.463744 4
30.441893 28.602933 4
32.920936 31.065665 4
39.06349 34.263651 4
33.976615 -0.69381105 4
33.984643 2.3376357 4
35.287711 1.2385253 4
31.728712 4.6916358 4
36.834629 4.5777846 4
35.453651 5.477623 4
36.205512 8.39363 4
39.442317 10.125101 4
37.190515 10.090045 4
35.576304 11.126413 4
35.580099 12.255763 4
36.749469 13.281364 4
35.721041 15.241029 4
35.598388 15.611512 4
35.460296 16.307058 4
44.777451 18.626749 4
36.738341 21.732009 4
36.290402 22.43298 4
34.192471 22.593298 4
36.87835 26.288893 4
35.918985 27.939329 4
36.055447 27.329544 4
38.358632 26.866005 4
35.618998 32.079769 4
32.099001 30.745486 4
34.579014 -1.2238555 4
33.429291 1.6851649 4
37.172247 3.6391414 4
35.558198 3.3129972 4
34.063251 4.9849133 4
39.342191 7.6079774 4
34.14373 8.3279631 4
37.612879 9.6689677 4
37.014312 7.9960877 4
36.212091 8.8611624 4
36.429444 10.434809 4
33.81756 12.786805 4
34.438624 14.637297 4
36.970545 13.401366 4
37.49622 18.536385 4
36.201137 16.009023 4
38.699271 17.129962 4
37.812036 15.7246 4
36.367281 19.503034 4
37.015377 21.081792 4
37.254786 21.858026 4
36.028471 23.491683 4
35.924797 23.876578 4
38.258156 29.350743 4
35.213138 29.869533 4
35.537406 2.4339652 4
35.449023 -0.49179908 4
36.829951 4.1754177 4
35.955066 2.004228 4
34.302416 5.1935859 4
37.42863 6.8639395 4
36.17863 6.3220804 4
34.425974 8.5772522 4
35.611755 11.670012 4
36.126373 11.027278 4
34.769952 12.577594 4
35.011764 11.645754 4
36.894067 14.553822 4
35.418043 15.410318 4
34.914633 18.078596 4
34.706023 19.183591 4
35.951803 20.445703 4
35.843649 21.291665 4
35.658571 21.890441 4
36.873462 25.071281 4
36.468537 24.061286 4
34.666421 25.6799 4
34.703134 22.14965 4
35.951114 29.930081 4
37.579347 29.132586 4
36.053917 1.1178559 4
36.696525 1.3275587 4
37.157577 2.2685495 4
35.83548 3.4599888 4
36.960761 4.8778143 4
37.474041 7.8966668 4
37.754215 11.444613 4
37.438014 11.596819 4
36.94511 12.811129 4
37.992603 13.394788 4
36.943817 15.055782 4
37.13007 15.963877 4
37.172835 17.435129 4
38.652623 17.799963 4
37.957334 18.462568 4
39.15573 17.603318 4
36.589918 17.003971 4
36.739775 19.300664 4
38.312045 18.635985 4
38.30953 19.75885 4
38.309757 20.888624 4
38.603321 27.560413 4
39.43978 28.037169 4
35.172785 26.875618 4
35.235787 28.829125 4
36.295128 1.135528 4
37.761495 1.7159835 4
37.131611 3.3297638 4
37.313098 4.7360761 4
37.477252 5.7388702 4
37.694805 7.4594026 4
39.982997 10.964715 4
36.735109 8.7924465 4
36.263658 10.074263 4
36.730409 11.77045 4
36.290452 12.348159 4
36.687275 12.872347 4
36.356909 14.728208 4
36.658361 16.312599 4
39.562061 15.970854 4
35.998096 16.779748 4
36.582023 18.917626 4
37.185992 20.065402 4
37.317302 21.340705 4
37.256529 22.708671 4
36.969538 22.654544 4
38.334555 24.806479 4
37.680154 24.796632 4
35.994698 29.116598 4
35.661385 28.732242 4
37.404286 1.1300242 4
37.930618 1.9519118 4
37.403622 3.3682627 4
37.417347 4.4516489 4
37.69173 5.0723024 4
37.82234 6.5369367 4
38.592558 8.18972 4
38.749225 9.9032842 4
38.765334 11.126015 4
38.764244 12.250568 4
38.76474 13.374799 4
38.765035 14.497347 4
38.769123 15.636434 4
38.773123 16.624065 4
38.801363 17.402392 4
40.152764 20.187811 4
38.533338 19.929425 4
38.031752 20.289107 4
37.649254 21.363054 4
38.183508 22.211188 4
37.42917 23.568419 4
39.753134 22.685939 4
37.992243 25.512836 4
38.443186 26.325008 4
38.469737 29.157879 4
38.526792 1.1297463 4
38.526717 2.2449091 4
38.526776 3.3673878 4
[...]
POINT_DATA 1250
SCALARS m double
LOOKUP_TABLE default
1
1
1
1
1
1
1
1
1
1
1
1
1
1
1
1
1
1
1
1
1
1
1
1
1
1
1
1
1
1
1
1
1
1
1
1
1
1
1
1
1
1
1
1
1
1
1
1
1
1
1
1
1
1
1
1
1
1
1
1
1
1
1
1
1
1
1
1
1
1
1
1
1
1
1
1
1
1
1
1
1
1
1
1
1
1
1
1
1
1
1
1
1
1
1
1
1
1
1
1
1
1
1
1
1
1
1
1
1
1
1
1
1
1
1
1
1
1
1
1
1
1
1
1
1
1
1
1
1
1
1
1
1
1
1
1
1
1
1
1
1
1
1
1
1
1
1
1
1
1
1
1
1
1
1
1
1
1
1
1
1
1
1
1
1
1
1
1
1
1
1
1
1
1
1
1
1
1
1
1
1
1
1
1
1
1
1
1
1
1
1
1
1
1
1
1
1
1
1
1
1
1
1
1
1
1
1
1
1
1
1
1
1
1
1
1
1
1
1
1
1
1
1
1
1
1
1
1
1
1
1
1
1
1
1
1
1
1
1
1
1
1
1
1
1
1
1
1
1
1
1
1
1
1
1
1
1
1
1
1
1
1
1
1
1
1
1
1
1
1
1
1
1
1
1
1
1
1
1
1
1
1
1
1
1
1
1
1
1
1
1
1
1
1
1
1
1
1
1
1
1
1
1
1
1
1
1
1
1
1
1
1
1
1
1
1
1
1
1
1
1
1
1
1
1
1
1
1
1
1
1
1
1
1
1
1
1
1
1
1
1
1
1
1
1
1
1
1
1
1
1
1
1
1
1
1
1
1
1
1
1
1
1
1
1
1
1
1
1
1
1
1
1
1
1
1
1
1
1
1
1
1
1
1
1
1
1
1
1
1
1
1
1
1
1
1
1
1
1
1
1
1
1
1
1
1
1
1
1
1
1
1
1
1
1
1
1
1
1
1
1
1
1
1
1
1
1
1
1
1
1
1
1
1
1
1
1
1
1
1
1
1
1
1
1
1
1
1
1
1
1
1
1
1
1
1
1
1
1
1
1
1
1
1
1
1
1
1
1
1
1
1
1
1
1
1
1
1
1
1
1
1
1
1
1
1
1
1
1
1
1
1
1
1
1
1
1
1
1
1
1
1
1
1
1
1
1
1
1
1
1
1
1
1
1
1
1
1
1
1
1
1
1
1
1
1
1
1
1
1
1
1
1
1
1
1
1
1
1
1
1
1
1
1
1
1
1
1
1
1
1
1
1
1
1
1
1
1
1
1
1
1
1
1
1
1
1
1
1
1
1
1
1
1
1
1
1
1
1
1
1
1
1
1
1
1
1
1
1
1
1
1
1
1
1
1
1
1
1
1
1
1
1
1
1
1
1
1
1
1
1
1
1
1
1
1
1
1
1
1
1
1
1
1
1
1
1
1
1
1
1
1
1
1
1
1
1
1
1
1
1
1
1
1
1
1
1
1
1
1
1
1
1
1
1
1
1
1
1
1
1
1
1
1
1
1
1
1
1
1
1
1
1
1
1
1
1
1
1
1
1
1
1
1
1
1
1
1
1
1
1
1
1
1
1
1
1
1
1
1
1
1
1
1
1
1
1
1
1
1
1
1
1
1
1
1
1
1
1
1
1
1
1
1
1
1
1
1
1
1
1
1
1
1
1
1
1
1
1
1
1
1
1
1
1
1
1
1
1
1
1
1
1
1
1
1
1
1
1
1
1
1
1
1
1
1
1
1
1
1
1
1
1
1
1
1
1
1
1
1
1
1
1
1
1
1
1
1
1
1
1
1
1
1
1
1
1
1
1
1
1
1
1
1
1
1
1
1
1
1
1
1
1
1
1
1
1
1
1
1
1
1
1
1
1
1
1
1
1
1
1
1
1
1
1
1
1
1
1
1
1
1
1
1
1
1
1
1
1
1
1
1
1
1
1
1
1
1
1
1
1
1
1
1
1
1
1
1
1
1
1
1
1
1
1
1
1
1
1
1
1
1
1
1
1
1
1
1
1
1
1
1
1
1
1
1
1
1
1
1
1
1
1
1
1
1
1
1
1
1
1
1
1
1
1
1
1
1
1
1
1
1
1
1
1
1
1
1
1
1
1
1
1
1
1
1
1
1
1
1
1
1
1
1
1
1
1
1
1
1
1
1
1
1
1
1
1
1
1
1
1
1
1
1
1
1
1
1
1
1
1
1
1
1
1
1
1
1
1
1
1
1
1
1
1
1
1
1
1
1
1
1
1
1
1
1
1
1
1
1
1
1
1
1
1
1
1
1
1
1
1
1
1
1
1
1
1
1
1
1
1
1
1
1
1
1
1
1
1
1
1
1
1
1
1
1
1
1
1
1
1
1
1
1
1
1
1
1
1
1
1
1
1
1
1
1
1
1
1
1
1
1
1
1
1
1
1
1
1
1
1
1
1
1
1
1
1
1
1
1
1
1
1
1
1
1
1
1
1
1
1
1
1
1
1
1
1
1
1
1
1
1
1
1
1
1
1
1
1
1
1
1
1
1
1
1
1
1
1
1
1
1
1
1
1
1
1
1
1
1
1
1
1
1
1
1
1
1
1
1
1
1
1
1
1
1
1
1
1
1
1
1
1
1
1
1
1
1
1
1
1
1
1
1
1
1
1
1
1
1
1
1
1
1
1
1
1
1
1
1
1
1
1
1
1
1
1
1
1
1
1
1
1
1
1
1
1
1
1
1
1
1
1
1
1
1
1
1
1
1
1
1
1
1
1
1
1
1
1
1
1
1
1
1
1
1
1
1
1
1
1
1
1
1
1
1
1
1
1
1
1
1
1
1
1
1
1
1
1
1
VECTORS v double
-1.9242351 -6.9474468 0
-4.5118748 -4.9933709 0
-0.26934519 -16.063429 0
-0.84910557 -13.499732 0
-7.4462943 5.3413181 0
-12.215958 -6.6498167 0
-3.5287453 4.5452099 0
4.8853208 -2.2952202 0
-8.9656464 18.346481 0
2.1710455 1.5398111 0
4.3601997 3.7649701 0
15.685026 -7.8489896 0
9.8078826 -14.897113 0
-11.170115 3.5450762 0
2.369516 3.3456029 0
6.4858972 -7.6082182 0
-11.984941 -8.5282667 0
-8.748766 -11.707935 0
7.4539942 6.0773196 0
0.26345661 12.380367 0
3.0326472 6.6979948 0
-11.533686 2.0651452 0
0.6890368 -11.795961 0
0.20847836 22.962137 0
1.6553575 10.946448 0
8.840006 -9.0826443 0
-11.042704 -7.4970131 0
-4.8732003 -9.0165717 0
-2.7808382 -9.3413244 0
-2.9175571 2.2412164 0
-3.3136257 -1.8420923 0
6.055506 0.261873 0
-6.9655802 -2.3328031 0
-14.976366 -2.9424331 0
9.9058961 7.2566894 0
-1.564426 3.36785 0
13.674218 1.299745 0
13.102974 12.500439 0
9.2486784 -13.258114 0
17.458517 0.25196204 0
-4.0362979 -7.6493668 0
-5.4794251 11.234532 0
-14.463656 -9.7639947 0
4.2236041 5.4249539 0
8.0886712 -2.0663758 0
-6.9493036 1.2027133 0
-3.8397389 -4.2737456 0
9.5594361 6.9768531 0
1.4691737 13.664147 0
-7.0695232 8.5030552 0
10.432114 -5.2146994 0
3.1087924 -15.901063 0
-4.8001772 -10.87519 0
6.5012994 -6.3099754 0
10.756968 -12.553888 0
3.4129565 6.5992199 0
3.766397 -12.887278 0
16.254956 -0.15475061 0
8.9125095 8.2987581 0
-6.1274276 -1.8286837 0
-1.7629347 -0.53407945 0
-7.7745993 7.3943406 0
-1.0001859 9.2182605 0
-3.4957195 -17.104267 0
5.1406684 -0.47649289 0
-7.5932306 -8.0572387 0
8.9189802 -12.871216 0
10.08629 11.019658 0
-8.115537 7.2574368 0
-8.3590035 4.8916493 0
-3.4171637 -0.15218321 0
11.754979 -2.178138 0
2.5409032 -4.0742208 0
6.3485792 6.0523511 0
-2.0570291 -0.8958783 0
3.9466542 -13.879275 0
-3.3966986 -4.998731 0
-8.5478423 12.017221 0
5.1992474 -14.920009 0
-3.2846476 1.8598817 0
-3.4986043 2.7430789 0
-8.4897607 -1.4028968 0
5.7686384 2.6368564 0
2.1790943 0.40437295 0
-9.1109344 -7.8771298 0
-1.3016522 -8.9380858 0
-3.6515859 5.6459343 0
5.5240167 3.7393111 0
8.7196577 -7.9629048 0
6.8904755 -11.835305 0
0.6606066 9.6535637 0
2.3961683 -4.856786 0
1.9479565 -7.770344 0
4.9337468 -0.67346584 0
-10.215213 -1.6335325 0
12.784575 2.7243461 0
-6.1368138 2.1701082 0
6.9820728 4.9919018 0
12.454277 7.8826448 0
0.47115582 14.494986 0
3.3724329 -12.746334 0
-5.5563087 -14.759282 0
-1.9875324 0.39970498 0
-4.7027921 4.3836252 0
-7.1356131 -8.7833493 0
-15.247622 -3.3936437 0
-9.4915457 0.58701543 0
-7.054667 -7.9599823 0
7.9908247 5.5101043 0
8.6195189 -10.639032 0
-8.4066544 -2.223039 0
9.8674284 -16.02614 0
-4.3396466 6.0518061 0
-10.497724 0.44734507 0
3.3484753 -0.76467827 0
0.82028501 0.73883779 0
-7.8898636 1.772446 0
-11.520362 -9.6657525 0
2.6626963 -1.2333016 0
-9.2114267 -11.413337 0
13.22702 18.16389 0
2.6034013 15.252131 0
-5.5869056 8.9343731 0
-3.1230526 9.7305185 0
-8.0250682 0.62878605 0
-2.3629076 -8.999923 0
0.079799491 -22.507233 0
-0.49924948 13.98187 0
3.2297913 -7.54532 0
-6.2552433 -9.6150401 0
5.6401195 5.6458436 0
-7.7997669 -2.6921348 0
0.9876274 -9.4889634 0
10.626887 -8.5929304 0
10.42784 4.7321612 0
0.80672514 -16.727936 0
1.221783 -8.5224368 0
-5.8352727 9.7932772 0
18.034714 -1.1464617 0
-3.1510591 -15.765461 0
5.452926 4.1152926 0
-8.3363044 2.5287142 0
-1.0826963 10.362766 0
2.1070904 8.5709168 0
-5.9189841 6.5768343 0
-1.1419668 0.94262687 0
12.016354 -9.4995714 0
-7.738962 2.012627 0
2.7835736 9.3004298 0
-9.1783765 1.2312105 0
-2.9334642 -2.0038669 0
-7.1221573 -15.01762 0
-17.146648 -4.7218915 0
-4.0194515 -9.4538816 0
-0.58983256 -8.1600495 0
-0.98661756 4.2253638 0
-2.0157262 -8.7840244 0
3.3834007 -1.7978435 0
-6.4017579 -12.678106 0
-2.9932198 11.711574 0
17.258076 3.1719017 0
6.1423418 -0.86101613 0
0.017441868 -6.7768995 0
-0.1861238 1.2107798 0
5.6119027 -4.7575558 0
-13.395798 -2.3221028 0
-0.49686691 8.9340088 0
-6.9516402 -0.72826073 0
5.6405999 4.3125685 0
3.1663787 1.8158122 0
-8.775548 4.2465844 0
-1.0535497 2.3407366 0
0.97565418 -3.6834267 0
0.36730549 1.4670677 0
-9.1681756 7.0702538 0
7.9152496 -6.5258364 0
-12.278618 -4.9640117 0
-0.062325517 -13.864543 0
-8.8459957 4.2999942 0
7.5615818 -7.7765786 0
-4.697356 -16.490768 0
11.643572 -4.6445029 0
4.4221678 -8.7013423 0
-2.5313048 -13.995224 0
0.24818296 3.3040511 0
1.5481025 -5.2664058 0
-0.70616374 0.96353001 0
0.82106035 16.372618 0
-1.8547397 -0.29748346 0
0.78583502 4.7386831 0
2.2867753 7.1626351 0
-6.2775726 -17.2975 0
-5.0184333 -1.314575 0
6.1753504 3.3150437 0
-0.48770424 -2.6064484 0
6.3651197 -3.1209395 0
6.8191673 20.617564 0
-6.9750696 7.3648912 0
5.4664123 9.2373189 0
6.2746043 8.8214983 0
-3.6659344 7.2345675 0
0.90317595 3.4655581 0
-0.52993604 0.39202105 0
6.0231257 -18.676197 0
-11.597363 -2.7765475 0
-7.9387984 1.3796171 0
2.7384566 -0.64215572 0
2.4282113 2.1472581 0
12.023652 -8.5393363 0
7.2260546 4.9453026 0
18.278284 1.3023961 0
-7.0820975 9.8287479 0
-1.7717136 2.1981992 0
-2.9456549 2.6766269 0
-10.409813 13.857157 0
4.7877203 4.2929636 0
2.6178775 -8.3881193 0
-6.3272351 -2.4281813 0
14.210486 -4.9322115 0
1.6840529 -9.0898312 0
-0.14735989 5.8459032 0
3.4227609 4.4667991 0
0.11136491 -4.6153525 0
-3.6711955 14.281312 0
-5.452722 -3.1896281 0
2.7979223 -1.0682215 0
-4.6806875 -14.709696 0
3.1475791 -6.1447613 0
-6.4043207 8.3821743 0
-2.6966292 -3.3978118 0
2.9308975 3.3977919 0
0.18232731 1.3511134 0
10.21402 -11.379639 0
2.5099923 7.8317169 0
-5.5744752 -2.0268312 0
-0.50343497 7.957551 0
-6.8193509 18.396994 0
4.0691777 2.788749 0
7.6311594 -10.028146 0
-6.5048073 -3.4861376 0
-4.3299894 -0.93429415 0
5.4888298 6.647123 0
-1.0823196 3.0685786 0
-10.902972 7.9264307 0
-9.493738 -5.1003334 0
-3.23063 -1.4209714 0
-11.851342 0.51176693 0
-7.0180692 4.7519453 0
5.8674897 7.7015623 0
-10.632489 6.036056 0
-9.3670109 -11.17076 0
0.7602452 -4.5849374 0
-1.0014356 -5.355065 0
-14.489083 -10.159542 0
4.9734533 0.41395484 0
-0.17066102 -2.0620914 0
-10.202199 -2.4335147 0
10.95887 -8.2656149 0
9.0112526 -2.1744924 0
-7.4054002 1.8096418 0
-7.8174146 9.6703824 0
1.4009481 1.6728901 0
5.0623173 -3.8879605 0
4.6550693 -5.4846393 0
-5.8571677 2.3230138 0
-9.6716839 9.0807351 0
-2.1454487 -14.774351 0
-9.837717 -3.8055395 0
2.2809094 4.4870064 0
0.8278907 6.6412676 0
0.99429621 -2.2156545 0
-2.5135036 -12.222621 0
3.7144019 -2.1692562 0
-8.7980253 3.1567625 0
-10.04661 9.1874933 0
0.83129953 -12.772025 0
-7.7028431 -5.642851 0
-7.3009865 4.4640268 0
-5.6276032 -3.964216 0
6.5942294 3.2062658 0
7.4091435 1.6438701 0
0.85727608 -5.7157839 0
9.9248023 10.063577 0
0.14061704 -3.7039112 0
0.1555185 -16.76559 0
-0.99079097 -2.409022 0
-2.8017566 5.5589482 0
-3.2526673 1.2172217 0
-8.2505094 -3.0167335 0
7.4983744 6.3633049 0
-2.6217983 -4.5923564 0
-8.5781785 -0.012559073 0
-0.90461574 4.914393 0
-6.7738258 4.3360455 0
-0.093881056 -9.4683915 0
8.8610752 7.6411635 0
-6.0549169 -13.699359 0
0.69653119 6.3818334 0
-12.561377 8.7664931 0
3.3786516 9.8879933 0
-0.84138908 -7.6405245 0
-12.84818 -3.0681904 0
-2.9811363 -0.87036699 0
-9.2572967 -0.91573153 0
-3.2922923 5.6613535 0
8.5667201 -18.538716 0
4.4654841 -6.3847993 0
-10.085185 0.27549363 0
0.49433221 -4.0998367 0
-8.6728816 -2.5937559 0
-8.4569322 -2.9438933 0
-0.33681181 -8.5041921 0
-7.4052232 5.7197562 0
-6.9907755 -1.2729153 0
-12.410138 -3.7712553 0
11.992997 -7.2497891 0
-4.0027993 7.4519461 0
-6.5550698 6.1602532 0
-3.6234197 -2.2948516 0
-0.55799161 12.408748 0
-0.60582947 5.2179902 0
1.6210011 -2.9324687 0
-2.5780217 5.7686442 0
-4.5675044 9.5568676 0
-3.9360256 16.660106 0
0.27616596 -14.607501 0
-2.9659256 -7.1617677 0
2.1911508 -6.3317315 0
-5.3861706 7.5588606 0
8.78558 -10.703886 0
5.6147566 3.1174185 0
0.55671549 6.8214072 0
-2.051889 -1.9333618 0
-1.2573494 -8.0807394 0
-9.7859607 -3.9338673 0
10.840021 5.1715316 0
-8.3050783 -3.6732675 0
-7.245428 -0.89185128 0
5.1418099 3.0123614 0
6.1176434 6.7585763 0
-5.8445051 -6.3216446 0
14.434834 -9.6849994 0
8.7863419 2.9917176 0
-11.751083 -0.24389629 0
-7.4700849 -5.4214429 0
-0.79234942 -0.64338287 0
-3.1831279 2.1976067 0
-3.7593681 4.2277549 0
1.6621733 11.109777 0
-1.4941337 6.9680925 0
5.2165387 13.226005 0
-2.9007187 -22.820345 0
5.6809838 1.4954456 0
-10.98644 -2.6427016 0
-5.1909729 -11.277794 0
1.4126635 1.975209 0
-4.5814316 -6.6614748 0
-11.748887 -3.7190614 0
2.0628198 8.4992241 0
-9.5801948 -0.92706783 0
-2.1007157 6.0381448 0
-4.9253376 -8.0830327 0
6.8525976 8.7012182 0
-3.3331754 -2.9232086 0
1.256969 3.3962089 0
-5.4321717 -1.8912318 0
4.2217584 -1.6772021 0
2.4870741 -1.9473947 0
-3.2516531 7.1925802 0
0.79095005 2.4360098 0
-10.360738 1.772808 0
-14.939153 8.5144637 0
9.6216041 -11.38379 0
-3.9187919 9.2248436 0
0.12683979 3.0582007 0
-4.3144391 -0.49365154 0
2.0419049 -7.334596 0
-10.770649 -1.4987601 0
-4.2615056 -6.6554423 0
-2.4510175 -3.6080195 0
3.0978831 9.4791237 0
-2.1268172 16.006678 0
-0.17759757 3.9377841 0
-9.5110499 5.5578916 0
8.8499048 -6.6588599 0
-10.968297 5.9417752 0
2.5499535 -0.99691401 0
-8.9435299 7.2352719 0
-0.98954902 0.62602164 0
-5.559275 -0.96852615 0
5.8206366 -5.6703751 0
-9.613378 -3.6097221 0
-2.6183217 5.2206723 0
-0.4082024 -9.675259 0
-3.0201359 -10.970846 0
-0.32503653 -9.5410874 0
1.7707475 9.6206323 0
-9.9457446 4.6673902 0
-9.721761 -0.69822128 0
-14.608334 5.4867878 0
-3.0205038 0.67600838 0
1.1646597 -4.9870603 0
-3.3182913 -12.892211 0
-11.636294 -0.1381611 0
-4.9688232 0.27823828 0
-1.1725487 0.7433987 0
1.6684073 -0.59347639 0
-2.2216047 -2.534489 0
-10.154421 -1.0139536 0
-10.765964 6.8688846 0
-8.6166082 2.7011166 0
-9.3524488 -9.8596646 0
-9.2494395 1.0221137 0
-10.734758 13.29236 0
-8.8397239 2.0321037 0
-1.4058444 -4.0404241 0
-2.8922174 -3.6585246 0
-9.8095231 -1.7873924 0
-0.26503006 4.2847173 0
-3.6271442 6.8350192 0
-10.331309 -6.1198612 0
-9.8643978 0.4111948 0
-2.3414687 4.2294455 0
-16.404617 8.6868256 0
-5.4725294 3.0132447 0
-9.9997582 0.023003353 0
-0.36862985 -4.0772923 0
-9.2222266 0.12761106 0
-7.614458 -7.4894237 0
1.3407252 3.9116825 0
1.7993221 -5.7366603 0
1.066655 6.3565012 0
-10.164529 1.9072794 0
-10.041287 2.4396922 0
-10.053613 2.4255415 0
-10.018648 2.4316241 0
-10.016525 2.432101 0
-9.9901493 2.5361134 0
-9.8491616 1.9582943 0
-10.267332 -1.2581152 0
-1.6602737 9.7389421 0
-6.1398747 0.62313841 0
0.4813629 1.3844768 0
-1.4600046 1.2165586 0
3.0664603 -18.133077 0
-3.7863265 -0.87306692 0
-8.1387201 0.068875535 0
-6.1873452 2.5686796 0
-9.4031192 -3.109576 0
-2.9606146 5.4384516 0
-10.000368 0.011816052 0
-10.004459 -0.0016669353 0
-10.000152 3.8270804e-05 0
-10.021657 0.15550423 0
-10.024436 0.2247984 0
-10.003346 0.0041813448 0
-7.9600007 -3.6450013 0
-5.2555329 1.8362714 0
3.0367265 -7.4616267 0
6.8476123 0.32092895 0
6.8942513 0.35727746 0
6.8901101 0.37034533 0
6.8912702 0.3713334 0
6.8675263 0.44161555 0
6.6855644 -0.666337 0
3.9325827 -5.1700497 0
-10.018502 -0.10289941 0
-11.947036 7.4249619 0
-10.067098 -0.057851644 0
-9.4798027 -0.31343339 0
1.256065 10.832912 0
0.39723226 -5.9370953 0
-10.020472 0.040650421 0
-1.0496912 3.7462281 0
-9.9295321 -0.19607328 0
-9.9999299 0.011457107 0
-10 -7.9185673e-05 0
-9.999996 7.9305029e-06 0
-10.000179 8.8483247e-05 0
-10.002137 0.0012839891 0
-9.9703362 0.048106471 0
-6.5471079 -9.0688402 0
-10.005054 -0.006975902 0
-3.3555387 12.145529 0
-9.615733 11.427634 0
-10.000366 -0.20470167 0
-10.000351 -0.20605024 0
-9.9999559 -0.20565357 0
6.7678601 -8.8955755 0
-9.9298805 2.1776633 0
-7.2832305 8.135594 0
-10.056707 0.055542835 0
-9.8179834 -0.17401801 0
0.59793865 2.8040433 0
-9.6609655 -9.387359 0
3.1925881 6.6144339 0
-9.9999529 0.00057093848 0
-10.000227 0.00039956906 0
-9.4998489 -1.2004057 0
6.1110064 2.4136959 0
-9.9998768 0.011454155 0
-9.9999836 -7.4409601e-05 0
-9.9999837 6.2871082e-06 0
-9.999986 8.1801667e-06 0
-9.9999987 1.9263938e-05 0
-10.000724 0.00040420717 0
-10.001667 0.00021669611 0
-9.997842 0.0058886229 0
-2.7515832 -11.016169 0
-9.9471933 -0.026695066 0
-10.001723 0.08370368 0
-10.001375 0.06251539 0
-9.9864439 0.12003193 0
-10.015845 -0.11983306 0
-9.9480592 0.26574907 0
-10.008455 -0.0088592921 0
-10.001802 -0.040746054 0
-10.004793 -0.00071474602 0
-10.001233 0.00015057161 0
-10.000357 0.0011670938 0
-8.4658168 -3.0771415 0
-9.9970202 -0.0059872109 0
-9.9999929 2.1396766e-05 0
-10.001293 0.00077083934 0
-10.000511 -0.011856637 0
-9.9996908 0.011453961 0
-9.9999675 -6.2892681e-05 0
-9.9999673 1.7465505e-05 0
-9.9999672 1.8992022e-05 0
-9.9999664 2.0181269e-05 0
-9.9999741 2.1312562e-05 0
-9.9999834 3.7053334e-05 0
-10.00455 0.0055739197 0
4.192609 9.3785774 0
-10.058655 -0.061770079 0
-10.058125 -0.060705648 0
-10.05584 -0.058936321 0
-10.056092 -0.058791789 0
-10.057461 -0.062118771 0
-10.037733 -0.037400983 0
-10.000517 0.0038772881 0
-9.9903392 -0.093740802 0
-9.9999728 6.2797918e-06 0
-9.9999714 2.549393e-05 0
-10.000024 8.9156386e-05 0
-10.002714 0.0032606263 0
-10.028246 -0.047954152 0
-9.9999655 5.9526068e-06 0
-9.9999637 0.00011154082 0
-9.99996 -0.01142594 0
-9.9994846 0.011453877 0
-9.9999516 -5.0023137e-05 0
-9.9999519 3.0114217e-05 0
-9.9999514 3.1655055e-05 0
-9.9999503 3.3088105e-05 0
-9.9999492 3.4098769e-05 0
-9.9999509 3.5068707e-05 0
-9.9999831 5.3225288e-05 0
-10.000315 6.9242839e-05 0
-10.000018 1.2941635e-05 0
-9.9999983 3.0425389e-05 0
-9.9999978 3.1810202e-05 0
-9.9999992 3.2199974e-05 0
-9.9999984 3.1205832e-05 0
-9.9999895 3.5639593e-05 0
-10.000127 0.0020566379 0
-10.010888 0.09120977 0
-9.9999417 -4.4633334e-05 0
-9.9999433 3.7587562e-05 0
-9.9999509 3.8576744e-05 0
-9.999968 4.4123465e-05 0
-9.9999776 2.7017953e-05 0
-9.9999478 3.6069785e-05 0
-9.9999447 0.00011996804 0
-9.9999359 -0.011415504 0
-9.9992991 0.011457571 0
-9.9998633 -4.9099159e-05 0
-9.999862 3.2114087e-05 0
-9.9998615 3.3639291e-05 0
-9.999861 3.3615612e-05 0
-9.9998595 3.4580411e-05 0
-9.9998588 3.6070321e-05 0
-9.999851 3.6447877e-05 0
-9.9998508 3.6538693e-05 0
-9.9998484 3.7673607e-05 0
-9.9998466 3.9441553e-05 0
-9.9998466 3.9434496e-05 0
-9.999846 3.9429088e-05 0
-9.9998459 3.9911055e-05 0
-9.9998491 4.6086207e-05 0
-9.9996118 0.0017012692 0
-9.0335483 4.919143 0
-9.9998473 -0.00019732543 0
-9.9998447 4.0108832e-05 0
-9.9998356 4.1385146e-05 0
-9.999835 4.2379708e-05 0
-9.9998264 4.2826143e-05 0
-9.999826 4.4370049e-05 0
-9.9998264 0.00012487949 0
-9.9998382 -0.011414893 0
-10.010102 0.010821242 0
-10.011364 -2.5079065e-05 0
-10.011361 4.2633701e-05 0
-10.01136 4.4182083e-05 0
-10.011359 4.5166558e-05 0
-10.011359 4.5647555e-05 0
-10.011358 4.5663928e-05 0
-10.011358 4.564564e-05 0
-10.011366 4.6163349e-05 0
-10.011366 4.6166126e-05 0
-10.011364 4.6145852e-05 0
-10.011356 4.7159653e-05 0
-10.011355 4.7625095e-05 0
-10.011355 4.8629678e-05 0
-10.011365 5.0822169e-05 0
-10.011643 0.00037224116 0
-10.013184 -0.0011528086 0
-10.011377 3.1956055e-05 0
-10.011362 4.916939e-05 0
-10.011354 5.0076482e-05 0
-10.011351 5.159937e-05 0
-10.011352 5.1557107e-05 0
-10.011343 5.3077247e-05 0
-10.011347 0.00012193774 0
-10.010712 -0.010770987 0
9.3664052 -3.8409628 0
10.660554 -1.7301696 0
-3.1857681 -7.4337842 0
6.9879312 -11.314251 0
0.4997796 -3.3767003 0
-7.5265638 -8.8652915 0
5.4995302 -7.549191 0
3.9247747 -12.163097 0
-5.0965753 5.3818329 0
-3.9776816 6.0035554 0
-3.4381445 -8.9640949 0
2.3716148 10.953482 0
-21.927133 -2.9580438 0
-3.1083639 0.061656718 0
-2.4545328 -0.63734521 0
-0.99636275 -1.770484 0
-4.6875704 -0.99266127 0
11.249746 -10.56593 0
-6.0725356 15.098724 0
-9.9476694 1.9872644 0
-2.5484186 -0.20563858 0
0.38346956 10.091898 0
8.2185047 4.7055923 0
-2.6282259 22.954801 0
-9.4489967 5.546819 0
8.1440752 -4.180021 0
11.139694 -0.42323344 0
5.2430129 0.038583479 0
2.9462573 7.8030176 0
1.5123763 8.642001 0
-2.1492828 -9.965489 0
7.5543268 3.7749123 0
-7.1261093 -7.4590394 0
-3.3301373 7.0726073 0
7.7428885 -7.2896816 0
-4.7814986 11.101322 0
-21.373338 -3.5845442 0
5.9923161 -2.8835269 0
15.469931 1.2760481 0
3.0275154 13.891494 0
-6.2817538 -2.0226228 0
6.1952642 0.48907858 0
-8.3160421 12.361772 0
-2.4757271 7.4473765 0
-6.7678214 0.95393678 0
-8.4980788 4.2725133 0
-5.6816495 6.9290136 0
7.1943693 1.6554052 0
-6.3211137 14.913686 0
-0.12025542 9.3395839 0
8.2356755 -6.0207544 0
0.51201108 -0.27684637 0
7.9068435 3.217851 0
-1.5285996 -12.798119 0
-6.685218 -13.89894 0
7.4472158 -4.1968162 0
6.083533 -15.119066 0
2.1895675 -9.3674535 0
1.4602921 8.6859083 0
2.3954532 -4.9516631 0
0.92408035 -7.4298046 0
12.356675 -0.28445386 0
6.8288358 -1.8611817 0
5.0831368 1.358504 0
-0.24449082 4.1822503 0
-7.0310305 -2.0728152 0
4.9223617 0.73574869 0
7.7131127 -0.61022848 0
-3.414073 7.0899683 0
-2.3079012 14.14884 0
5.2421008 6.1381964 0
-1.947027 11.60622 0
6.2867625 7.1153175 0
-6.5027517 10.592053 0
-0.63480264 -5.8027771 0
-6.5485197 -6.7367896 0
-1.9776516 -10.564118 0
-11.272644 -3.4755627 0
-2.3492341 -1.3740009 0
1.2049717 0.15725075 0
-9.3633669 0.61349758 0
1.5312616 -3.2850654 0
5.621834 0.8679534 0
3.4237044 6.1741731 0
0.44539838 1.5379077 0
-14.527313 4.5566134 0
0.6659958 0.4256437 0
1.7371117 1.5154699 0
6.1388391 -0.77580479 0
0.93195201 -1.7112918 0
0.51194962 -7.4860543 0
-13.60161 -7.6686161 0
5.7127185 11.666987 0
2.0356827 -3.1809653 0
-6.0757191 13.793524 0
3.6816947 0.73128726 0
10.384675 1.0427648 0
7.0309447 1.282405 0
4.5814445 -1.7281018 0
7.0375685 8.292905 0
8.3179218 -8.7025763 0
3.8631332 -0.4978339 0
-1.5803692 -5.4176847 0
-0.82219651 -6.7658028 0
2.4283303 -7.9487388 0
11.778309 -9.1504449 0
-5.8692594 5.1462381 0
8.8533421 -6.744426 0