# vtk DataFile Version 4.0
hesp visualization file
ASCII
DATASET UNSTRUCTURED_GRID
POINTS 1250 double
29.098722 2.7924057 4
29.016495 2.0595869 4
31.072635 3.0174903 4
30.523405 5.114734 4
30.903144 5.4092724 4
30.930079 6.537879 4
30.960998 7.6549757 4
30.910596 8.7807578 4
30.915234 9.9038613 4
30.994807 11.022658 4
31.104524 12.160005 4
30.542435 13.466579 4
30.448958 14.798592 4
30.768381 15.519987 4
30.805728 17.291806 4
31.68821 17.369968 4
30.90791 18.797365 4
30.928107 19.882491 4
31.101527 21.161665 4
30.561098 21.909928 4
30.855519 23.236586 4
30.833287 24.347989 4
30.719569 25.395409 4
30.748858 26.532546 4
29.890467 27.587381 4
32.986078 -1.1339853 4
30.884888 3.3317359 4
30.59839 2.4547829 4
29.902318 3.7363694 4
29.734985 4.8782845 4
29.727135 6.008737 4
29.741044 7.1166545 4
29.739031 8.2436982 4
29.719863 9.3812704 4
29.690334 10.529956 4
30.422894 11.970118 4
29.991185 12.571607 4
30.327371 13.713112 4
29.834538 14.862458 4
30.463553 16.951721 4
29.914484 18.566535 4
29.73853 19.051901 4
29.712603 20.18902 4
30.421533 21.714382 4
30.569478 22.490402 4
30.597655 23.635944 4
30.702393 24.878621 4
30.395991 25.770942 4
29.012312 27.088696 4
32.021978 28.874013 4
29.670059 2.1966939 4
30.997153 0.26109482 4
32.063563 2.9872202 4
31.923821 3.3550986 4
31.851738 4.4006193 4
31.854751 5.5208076 4
31.853708 6.6453371 4
31.854936 7.7653859 4
31.854413 8.8888803 4
31.853672 10.012881 4
31.851851 11.138924 4
31.866689 12.232859 4
31.865164 13.358205 4
31.871408 14.469119 4
31.871065 15.592212 4
31.966222 16.556724 4
31.964853 17.680616 4
31.976604 18.789645 4
31.977237 19.911316 4
31.912363 21.320689 4
31.837606 22.375132 4
31.837312 23.498262 4
31.827634 24.644041 4
31.891897 26.276832 4
32.110611 27.398214 4
33.845687 -2.1630575 4
31.734355 3.1115816 4
31.538334 4.9685055 4
30.89514 4.6211667 4
30.918358 6.3033337 4
30.89392 7.4214337 4
30.876095 8.541567 4
30.908677 9.6674023 4
30.906476 10.793312 4
30.8532 11.90523 4
30.775663 12.985629 4
31.153457 13.973935 4
31.184245 15.036887 4
31.00911 16.360786 4
30.665584 16.580654 4
31.352168 17.481231 4
31.47283 18.711935 4
31.525704 19.885679 4
31.723916 21.051324 4
31.465203 21.931187 4
31.483843 23.061326 4
31.579673 24.234901 4
31.550963 25.328232 4
30.625539 26.847603 4
32.109132 30.417838 4
32.169295 1.5506797 4
33.537756 1.3163914 4
33.454565 2.2780393 4
33.26391 3.9730541 4
33.265319 5.1017879 4
33.263878 6.224478 4
33.265228 7.34608 4
33.263644 8.4695287 4
33.264322 9.5915451 4
33.265319 10.712829 4
33.267657 11.833963 4
33.248633 12.967755 4
33.250591 14.088984 4
33.242663 15.215852 4
33.243095 16.338162 4
33.118082 17.588632 4
33.120101 18.710693 4
33.100014 19.836896 4
33.098996 20.959649 4
33.293185 21.967425 4
33.292972 23.09019 4
33.293254 24.212303 4
33.310353 25.257846 4
33.191575 26.029034 4
33.038825 27.146924 4
31.9883 0.68428095 4
32.96497 3.1144008 4
33.975979 4.7666218 4
34.643858 5.2103953 4
34.645604 6.3322138 4
34.645245 7.454884 4
34.645423 8.5772422 4
34.645208 9.6998291 4
34.645294 10.822241 4
34.645294 11.944703 4
34.645647 13.066961 4
34.643019 14.19103 4
34.643256 15.313333 4
34.64215 16.43653 4
34.642223 17.558946 4
34.664252 18.675961 4
34.664252 19.798429 4
34.664454 20.921148 4
34.66446 22.043609 4
34.659236 23.16305 4
34.659235 24.28551 4
34.659235 25.407974 4
34.658096 26.53042 4
34.423909 27.695434 4
31.962311 28.296781 4
33.626162 2.5606689 4
33.148025 1.6172182 4
34.821959 4.1401053 4
33.076335 4.4216915 4
33.075956 5.5432262 4
33.075833 6.6661266 4
33.075896 7.7883793 4
33.075821 8.9110922 4
33.075851 10.033456 4
33.075855 11.155928 4
33.075979 12.277964 4
33.075113 13.403329 4
33.075189 14.525534 4
33.074856 15.649121 4
33.074905 16.771426 4
33.106148 17.903732 4
33.105626 19.025735 4
33.112145 20.15314 4
33.1124 21.275798 4
33.081202 22.358031 4
33.081202 23.480476 4
33.081202 24.602955 4
33.215209 25.525604 4
33.790298 26.244074 4
33.27296 27.385763 4
36.203761 0.04568026 4
34.444445 3.125618 4
34.219884 3.6335421 4
34.410696 4.7300105 4
34.210667 5.8093732 4
34.210671 6.9318301 4
34.210669 8.0542964 4
34.210671 9.1767531 4
34.21067 10.299217 4
34.21067 11.421679 4
34.210668 12.54415 4
34.210689 13.666544 4
34.210687 14.789014 4
34.210695 15.911443 4
34.210694 17.033901 4
34.211682 18.165469 4
34.211686 19.287942 4
34.211686 20.410404 4
34.211685 21.532866 4
34.211712 22.655275 4
34.211711 23.777738 4
34.211711 24.9002 4
34.211654 26.022669 4
34.222157 27.203696 4
35.794059 29.099035 4
34.394897 1.1064356 4
36.692601 1.570835 4
35.570932 2.7831176 4
35.464501 4.0247861 4
35.463273 5.1489985 4
35.463273 6.2714611 4
35.463273 7.3939232 4
35.463273 8.5163852 4
35.463273 9.6388473 4
35.463273 10.761309 4
35.463273 11.883771 4
35.463272 13.006235 4
35.463278 14.128688 4
35.463272 15.25116 4
35.463266 16.37363 4
35.475556 17.479145 4
35.475556 18.601607 4
35.475556 19.724069 4
35.475556 20.846531 4
35.475554 21.968995 4
35.475554 23.091458 4
35.475553 24.213921 4
35.47554 25.336405 4
35.574588 26.351726 4
34.800795 27.635492 4
35.524553 1.123925 4
35.52625 2.2552359 4
36.342589 3.7561005 4
36.460959 4.8077858 4
36.462327 5.9291442 4
36.462327 7.0516062 4
36.462327 8.1740682 4
36.462327 9.2965303 4
36.462327 10.418992 4
36.462327 11.541454 4
36.462327 12.663916 4
36.462328 13.786378 4
36.462322 14.908845 4
36.462329 16.031301 4
36.462334 17.15376 4
36.448662 18.286911 4
36.448662 19.409373 4
36.448662 20.531835 4
36.448662 21.654297 4
36.448664 22.776758 4
36.448665 23.89922 4
36.448666 25.021681 4
36.448662 26.14415 4
36.338523 27.329428 4
35.5245 28.060214 4
36.646981 1.1241559 4
36.646967 2.2447822 4
36.646885 3.367489 4
36.646469 4.4902258 4
36.646461 5.6126929 4
36.646461 6.735155 4
36.646461 7.857617 4
36.646461 8.9800791 4
36.646461 10.102541 4
36.646461 11.225003 4
36.646461 12.347465 4
36.646461 13.469927 4
36.646461 14.592389 4
36.646461 15.714851 4
36.646461 16.837313 4
36.646542 17.959722 4
36.646542 19.082184 4
36.646542 20.204646 4
36.646542 21.327108 4
36.646542 22.44957 4
36.646542 23.572032 4
36.646542 24.694494 4
36.646542 25.816956 4
36.646889 26.939173 4
36.647077 28.06011 4
37.769544 1.1238975 4
37.769544 2.2449319 4
37.769544 3.3673862 4
37.769544 4.4898482 4
37.769544 5.6123103 4
37.769544 6.7347723 4
37.769544 7.8572343 4
37.769544 8.9796964 4
37.769544 10.102158 4
37.769544 11.22462 4
37.769544 12.347083 4
37.769544 13.469545 4
37.769544 14.592007 4
37.769544 15.714469 4
37.769544 16.836931 4
37.769544 17.959393 4
37.769544 19.081855 4
37.769544 20.204317 4
37.769544 21.326779 4
37.769544 22.449241 4
37.769544 23.571703 4
37.769544 24.694165 4
37.769544 25.816627 4
37.769544 26.939081 4
37.769545 28.060116 4
38.892007 1.1238973 4
38.892007 2.244932 4
38.892007 3.3673861 4
38.892007 4.4898482 4
38.892007 5.6123102 4
38.892007 6.7347723 4
38.892007 7.8572343 4
38.892007 8.9796964 4
38.892007 10.102158 4
38.892007 11.22462 4
38.892007 12.347083 4
38.892007 13.469545 4
38.892007 14.592007 4
38.892007 15.714469 4
38.892007 16.836931 4
38.892007 17.959393 4
38.892007 19.081855 4
38.892007 20.204317 4
38.892007 21.326779 4
38.892007 22.449241 4
38.892007 23.571703 4
38.892007 24.694165 4
38.892007 25.816627 4
38.892007 26.939081 4
38.892007 28.060116 4
40.014469 1.1238973 4
40.014469 2.244932 4
40.014469 3.3673861 4
40.014469 4.4898482 4
40.014469 5.6123102 4
40.014469 6.7347723 4
40.014469 7.8572343 4
40.014469 8.9796964 4
40.014469 10.102158 4
40.014469 11.22462 4
40.014469 12.347083 4
40.014469 13.469545 4
40.014469 14.592007 4
40.014469 15.714469 4
40.014469 16.836931 4
40.014469 17.959393 4
40.014469 19.081855 4
40.014469 20.204317 4
40.014469 21.326779 4
40.014469 22.449241 4
40.014469 23.571703 4
40.014469 24.694165 4
40.014469 25.816627 4
40.014469 26.939081 4
40.014469 28.060116 4
41.136931 1.1238973 4
41.136931 2.244932 4
41.136931 3.3673861 4
41.136931 4.4898482 4
41.136931 5.6123102 4
41.136931 6.7347723 4
41.136931 7.8572343 4
41.136931 8.9796964 4
41.136931 10.102158 4
41.136931 11.22462 4
41.136931 12.347083 4
41.136931 13.469545 4
41.136931 14.592007 4
41.136931 15.714469 4
41.136931 16.836931 4
41.136931 17.959393 4
41.136931 19.081855 4
41.136931 20.204317 4
41.136931 21.326779 4
41.136931 22.449241 4
41.136931 23.571703 4
41.136931 24.694165 4
41.136931 25.816627 4
41.136931 26.939081 4
41.136931 28.060116 4
42.259393 1.1238973 4
42.259393 2.244932 4
42.259393 3.3673861 4
42.259393 4.4898482 4
42.259393 5.6123102 4
42.259393 6.7347723 4
42.259393 7.8572343 4
42.259393 8.9796964 4
42.259393 10.102158 4
42.259393 11.22462 4
42.259393 12.347083 4
42.259393 13.469545 4
42.259393 14.592007 4
42.259393 15.714469 4
42.259393 16.836931 4
42.259393 17.959393 4
42.259393 19.081855 4
42.259393 20.204317 4
42.259393 21.326779 4
42.259393 22.449241 4
42.259393 23.571703 4
42.259393 24.694165 4
42.259393 25.816627 4
42.259393 26.939081 4
42.259393 28.060116 4
43.381855 1.1238973 4
43.381855 2.244932 4
43.381855 3.3673861 4
43.381855 4.4898482 4
43.381855 5.6123102 4
43.381855 6.7347723 4
43.381855 7.8572343 4
43.381855 8.9796964 4
43.381855 10.102158 4
43.381855 11.22462 4
43.381855 12.347083 4
43.381855 13.469545 4
43.381855 14.592007 4
43.381855 15.714469 4
43.381855 16.836931 4
43.381855 17.959393 4
43.381855 19.081855 4
43.381855 20.204317 4
43.381855 21.326779 4
43.381855 22.449241 4
43.381855 23.571703 4
43.381855 24.694165 4
43.381855 25.816627 4
43.381855 26.939081 4
43.381855 28.060116 4
44.504317 1.1238973 4
44.504317 2.244932 4
44.504317 3.3673861 4
44.504317 4.4898482 4
44.504317 5.6123102 4
44.504317 6.7347723 4
44.504317 7.8572343 4
44.504317 8.9796964 4
44.504317 10.102158 4
44.504317 11.22462 4
44.504317 12.347083 4
44.504317 13.469545 4
44.504317 14.592007 4
44.504317 15.714469 4
44.504317 16.836931 4
44.504317 17.959393 4
44.504317 19.081855 4
44.504317 20.204317 4
44.504317 21.326779 4
44.504317 22.449241 4
44.504318 23.571703 4
44.504318 24.694165 4
44.504318 25.816627 4
44.504318 26.939081 4
44.504318 28.060116 4
45.626781 1.1238973 4
45.62678 2.2449321 4
45.62678 3.3673862 4
[...]
POINT_DATA 1250
SCALARS m double
LOOKUP_TABLE default
1
1
1
1
1
1
1
1
1
1
1
1
1
1
1
1
1
1
1
1
1
1
1
1
1
1
1
1
1
1
1
1
1
1
1
1
1
1
1
1
1
1
1
1
1
1
1
1
1
1
1
1
1
1
1
1
1
1
1
1
1
1
1
1
1
1
1
1
1
1
1
1
1
1
1
1
1
1
1
1
1
1
1
1
1
1
1
1
1
1
1
1
1
1
1
1
1
1
1
1
1
1
1
1
1
1
1
1
1
1
1
1
1
1
1
1
1
1
1
1
1
1
1
1
1
1
1
1
1
1
1
1
1
1
1
1
1
1
1
1
1
1
1
1
1
1
1
1
1
1
1
1
1
1
1
1
1
1
1
1
1
1
1
1
1
1
1
1
1
1
1
1
1
1
1
1
1
1
1
1
1
1
1
1
1
1
1
1
1
1
1
1
1
1
1
1
1
1
1
1
1
1
1
1
1
1
1
1
1
1
1
1
1
1
1
1
1
1
1
1
1
1
1
1
1
1
1
1
1
1
1
1
1
1
1
1
1
1
1
1
1
1
1
1
1
1
1
1
1
1
1
1
1
1
1
1
1
1
1
1
1
1
1
1
1
1
1
1
1
1
1
1
1
1
1
1
1
1
1
1
1
1
1
1
1
1
1
1
1
1
1
1
1
1
1
1
1
1
1
1
1
1
1
1
1
1
1
1
1
1
1
1
1
1
1
1
1
1
1
1
1
1
1
1
1
1
1
1
1
1
1
1
1
1
1
1
1
1
1
1
1
1
1
1
1
1
1
1
1
1
1
1
1
1
1
1
1
1
1
1
1
1
1
1
1
1
1
1
1
1
1
1
1
1
1
1
1
1
1
1
1
1
1
1
1
1
1
1
1
1
1
1
1
1
1
1
1
1
1
1
1
1
1
1
1
1
1
1
1
1
1
1
1
1
1
1
1
1
1
1
1
1
1
1
1
1
1
1
1
1
1
1
1
1
1
1
1
1
1
1
1
1
1
1
1
1
1
1
1
1
1
1
1
1
1
1
1
1
1
1
1
1
1
1
1
1
1
1
1
1
1
1
1
1
1
1
1
1
1
1
1
1
1
1
1
1
1
1
1
1
1
1
1
1
1
1
1
1
1
1
1
1
1
1
1
1
1
1
1
1
1
1
1
1
1
1
1
1
1
1
1
1
1
1
1
1
1
1
1
1
1
1
1
1
1
1
1
1
1
1
1
1
1
1
1
1
1
1
1
1
1
1
1
1
1
1
1
1
1
1
1
1
1
1
1
1
1
1
1
1
1
1
1
1
1
1
1
1
1
1
1
1
1
1
1
1
1
1
1
1
1
1
1
1
1
1
1
1
1
1
1
1
1
1
1
1
1
1
1
1
1
1
1
1
1
1
1
1
1
1
1
1
1
1
1
1
1
1
1
1
1
1
1
1
1
1
1
1
1
1
1
1
1
1
1
1
1
1
1
1
1
1
1
1
1
1
1
1
1
1
1
1
1
1
1
1
1
1
1
1
1
1
1
1
1
1
1
1
1
1
1
1
1
1
1
1
1
1
1
1
1
1
1
1
1
1
1
1
1
1
1
1
1
1
1
1
1
1
1
1
1
1
1
1
1
1
1
1
1
1
1
1
1
1
1
1
1
1
1
1
1
1
1
1
1
1
1
1
1
1
1
1
1
1
1
1
1
1
1
1
1
1
1
1
1
1
1
1
1
1
1
1
1
1
1
1
1
1
1
1
1
1
1
1
1
1
1
1
1
1
1
1
1
1
1
1
1
1
1
1
1
1
1
1
1
1
1
1
1
1
1
1
1
1
1
1
1
1
1
1
1
1
1
1
1
1
1
1
1
1
1
1
1
1
1
1
1
1
1
1
1
1
1
1
1
1
1
1
1
1
1
1
1
1
1
1
1
1
1
1
1
1
1
1
1
1
1
1
1
1
1
1
1
1
1
1
1
1
1
1
1
1
1
1
1
1
1
1
1
1
1
1
1
1
1
1
1
1
1
1
1
1
1
1
1
1
1
1
1
1
1
1
1
1
1
1
1
1
1
1
1
1
1
1
1
1
1
1
1
1
1
1
1
1
1
1
1
1
1
1
1
1
1
1
1
1
1
1
1
1
1
1
1
1
1
1
1
1
1
1
1
1
1
1
1
1
1
1
1
1
1
1
1
1
1
1
1
1
1
1
1
1
1
1
1
1
1
1
1
1
1
1
1
1
1
1
1
1
1
1
1
1
1
1
1
1
1
1
1
1
1
1
1
1
1
1
1
1
1
1
1
1
1
1
1
1
1
1
1
1
1
1
1
1
1
1
1
1
1
1
1
1
1
1
1
1
1
1
1
1
1
1
1
1
1
1
1
1
1
1
1
1
1
1
1
1
1
1
1
1
1
1
1
1
1
1
1
1
1
1
1
1
1
1
1
1
1
1
1
1
1
1
1
1
1
1
1
1
1
1
1
1
1
1
1
1
1
1
1
1
1
1
1
1
1
1
1
1
1
1
1
1
1
1
1
1
1
1
1
1
1
1
1
1
1
1
1
1
1
1
1
1
1
1
1
1
1
1
1
1
1
1
1
1
1
1
1
1
1
1
1
1
1
1
1
1
1
1
1
1
1
1
1
1
1
1
1
1
1
1
1
1
1
1
1
1
1
1
1
1
1
1
1
1
1
1
1
1
1
1
1
1
1
1
1
1
1
1
1
1
1
1
1
1
1
1
1
1
1
1
1
1
1
1
1
1
1
1
1
1
1
1
1
1
1
1
1
1
1
1
1
1
1
1
1
1
1
1
1
1
1
1
1
1
1
1
1
1
1
1
VECTORS v double
-7.1783953 0.39892995 0
6.9184237 -6.1548892 0
7.7311895 5.6200382 0
-3.9677119 14.493548 0
-1.3984775 -4.1029885 0
-0.65155233 1.7380501 0
0.48686173 -0.76978723 0
-0.80783539 -0.75062613 0
-1.064325 0.6932193 0
1.2316789 -1.0975594 0
2.2127822 -3.2052427 0
4.1980963 -13.913719 0
-5.9614807 8.2981341 0
-3.109553 -5.0185634 0
1.8983286 8.1252117 0
7.7485769 2.4758951 0
-9.3662487 3.3643196 0
-9.6599295 1.5937134 0
-1.3135576 8.3537845 0
-6.0765319 7.1533085 0
-4.4367653 6.9254629 0
-4.7669518 6.7729556 0
-6.4145859 5.7630764 0
-5.949802 6.1761629 0
-6.4965579 0.66571671 0
8.8419397 -9.0869013 0
-7.5765743 1.9752851 0
-3.0342687 -13.476684 0
6.3632159 8.2111793 0
-7.1149274 -8.9529354 0
-7.2050915 -8.9066118 0
-7.0753653 -9.0439976 0
-7.1035246 -8.9812237 0
-7.2521668 -8.8937783 0
-7.4635143 -8.7361496 0
10.5433 5.3172406 0
-4.9815603 -10.378279 0
-7.6287122 2.368284 0
-5.8176983 -13.18182 0
4.839584 -7.6884515 0
-0.31645868 10.462198 0
-4.7054054 -8.3052682 0
-5.1222466 -8.0604623 0
3.9874281 5.1310382 0
6.7809781 -7.2156451 0
7.1869939 -6.8682496 0
8.685133 -5.0442784 0
4.3415346 -8.6448257 0
-2.9882758 10.445286 0
1.3187246 1.1813417 0
-9.3458295 3.9885896 0
-2.7103369 -9.4403357 0
-5.8067277 0.96370875 0
5.9140997 6.216626 0
-7.5748688 -9.0720654 0
-7.4802723 -9.113994 0
-7.4911517 -9.0907226 0
-7.4775839 -9.1160188 0
-7.4833107 -9.1051073 0
-7.4922975 -9.0876814 0
-7.5124462 -9.0505274 0
-7.3479865 -9.3498226 0
-7.3645076 -9.3187471 0
-7.2949767 -9.4402822 0
-7.2982632 -9.4337022 0
-6.0282509 -11.438234 0
-6.062393 -11.442826 0
-5.9091531 -11.578937 0
-5.9098975 -11.588287 0
1.5484368 -0.55960225 0
-7.611263 -9.0769089 0
-7.6159515 -9.0706124 0
-7.7473233 -8.8109124 0
-7.4015793 -2.2346513 0
10.004802 0.62159421 0
3.9467317 -13.879456 0
-4.9562134 -11.343254 0
-2.0405285 12.911715 0
-1.6834497 -1.6605954 0
-3.7818498 6.0403572 0
-4.8937413 8.4946341 0
-4.9275593 8.2871161 0
-3.8377448 7.003663 0
-4.755906 8.9999582 0
-5.0285804 11.519264 0
-6.7830354 10.499202 0
2.9927938 8.2021665 0
3.8534027 6.762147 0
-0.77178433 11.633104 0
-9.4027827 -6.7731414 0
0.74506273 -11.336051 0
7.6517759 -6.3614419 0
8.9897033 -4.465812 0
-1.6955953 -15.542349 0
2.7787947 -11.132728 0
3.0400158 -11.021475 0
4.5583208 -10.192377 0
4.1130874 -10.544403 0
-10.078563 -3.512879 0
0.4711566 14.495002 0
-6.6315585 -2.3410139 0
1.5996972 -5.0427151 0
6.5649119 2.2667748 0
7.9535531 -0.87655874 0
7.9594218 -0.82732457 0
7.9467009 -0.8165883 0
7.9592019 -0.83244569 0
7.9445638 -0.81405529 0
7.9508695 -0.82214577 0
7.9609134 -0.83891599 0
7.9822098 -0.86489129 0
7.8051495 -0.65041702 0
7.8237376 -0.67304458 0
7.7489433 -0.58763992 0
7.7526545 -0.59156 0
4.0221988 -5.5701948 0
4.1083059 -5.5065803 0
3.148914 -6.1644368 0
3.1040055 -6.1880089 0
8.0441678 -0.7286728 0
8.0413474 -0.72445849 0
8.0451431 -0.72907407 0
9.7434389 -12.553767 0
1.210725 5.2412056 0
-11.649627 -2.7443637 0
-9.8478422 -2.0402473 0
-9.6702555 -0.82882836 0
-11.727005 10.774327 0
8.3999408 4.8212244 0
8.4157375 4.8410395 0
8.41387 4.8409775 0
8.4148026 4.8410097 0
8.4136801 4.8409702 0
8.414129 4.8409831 0
8.414127 4.840986 0
8.4159776 4.8410575 0
8.4020708 4.8418327 0
8.4033657 4.8415917 0
8.3973754 4.8427663 0
8.3977508 4.8424343 0
8.4957269 4.9480754 0
8.4957356 4.9481727 0
8.4958033 4.9540578 0
8.4958116 4.9540873 0
8.48408 4.858912 0
8.4840725 4.8589013 0
8.4839893 4.8589823 0
8.4746554 4.8486062 0
-8.0176626 3.7373048 0
-9.9616593 1.1876095 0
-6.597214 8.2228282 0
-7.202124 -15.100488 0
10.159656 7.2376977 0
-9.9786333 -0.53627453 0
-9.9930177 -0.54820843 0
-9.9944654 -0.54285217 0
-9.9936897 -0.54483287 0
-9.9946179 -0.54245762 0
-9.9942396 -0.54329083 0
-9.9940827 -0.5422173 0
-9.9926395 -0.54697648 0
-10.003502 -0.51955393 0
-10.002516 -0.52200003 0
-10.006824 -0.51137148 0
-10.00597 -0.51689316 0
-7.6619603 5.7817811 0
-7.7309226 5.7068009 0
-6.9285514 6.4746125 0
-6.8917804 6.5069182 0
-9.9376932 -0.83890508 0
-9.9377022 -0.83942256 0
-9.9375461 -0.8378006 0
-4.1765444 -2.9655158 0
2.4444172 -11.259691 0
-4.4615465 1.5559683 0
7.9373001 -6.5513485 0
-8.0177711 6.8862771 0
-9.8052281 2.5595517 0
4.7578726 4.8764897 0
-9.8864615 1.8754268 0
-9.8863882 1.8754146 0
-9.8864094 1.8755379 0
-9.8863823 1.8753753 0
-9.8863941 1.875432 0
-9.8863961 1.8754377 0
-9.8864276 1.8757173 0
-9.886088 1.87357 0
-9.8861032 1.873642 0
-9.885964 1.872675 0
-9.8859229 1.8725843 0
-9.8780036 1.971818 0
-9.8779602 1.9726038 0
-9.8779785 1.9725225 0
-9.8780616 1.9725514 0
-9.877484 1.9720769 0
-9.8775375 1.9721106 0
-9.8776064 1.9721496 0
-9.8891746 1.9782135 0
-9.7692123 2.5086999 0
6.2747656 8.8222955 0
-10.059645 -0.15969607 0
9.0663118 -5.7169969 0
-5.578788 -9.2771413 0
-7.4809241 -7.3823849 0
-7.5017469 -7.3544745 0
-7.5017106 -7.3544324 0
-7.5017081 -7.3544302 0
-7.5017085 -7.3544307 0
-7.5017077 -7.3544305 0
-7.501708 -7.3544306 0
-7.5017072 -7.3544317 0
-7.5017244 -7.3544115 0
-7.5016111 -7.3545412 0
-7.5017241 -7.3543983 0
-7.5018162 -7.3542445 0
-7.2839676 -7.6230906 0
-7.2839936 -7.6231185 0
-7.2839939 -7.6231198 0
-7.2839952 -7.6231193 0
-7.2840273 -7.6230818 0
-7.284005 -7.6230823 0
-7.2840281 -7.623053 0
-7.2842292 -7.6225682 0
-5.5111705 -9.316357 0
8.7797872 -3.726216 0
-10.000123 0.0054378822 0
-9.9550646 0.16148197 0
5.3504263 7.3058171 0
7.4106644 5.8598675 0
7.4344796 5.8380828 0
7.4344833 5.8380833 0
7.4344835 5.8380831 0
7.4344833 5.8380834 0
7.4344833 5.8380833 0
7.4344832 5.8380834 0
7.4344823 5.8380843 0
7.4345006 5.8380678 0
7.4343886 5.8381714 0
7.4345112 5.8380587 0
7.4345374 5.8380172 0
7.1961302 6.0514104 0
7.1961322 6.0513938 0
7.1961321 6.0513938 0
7.1961327 6.0513934 0
7.1961694 6.0513632 0
7.1961703 6.0513627 0
7.196194 6.0513448 0
7.1954073 6.051869 0
5.2815122 7.3398942 0
-10.002489 -0.0025178629 0
-10.006332 0.040798616 0
-10.004659 -0.0098744763 0
-10.019264 0.014730099 0
-10.068568 0.060937339 0
-10.069242 0.061604247 0
-10.06924 0.061606879 0
-10.06924 0.061606892 0
-10.06924 0.061606884 0
-10.06924 0.061606886 0
-10.06924 0.061606883 0
-10.06924 0.061606858 0
-10.06924 0.061607336 0
-10.069237 0.061604422 0
-10.069241 0.061607577 0
-10.069246 0.061609182 0
-10.060869 0.054158494 0
-10.060887 0.054140332 0
-10.060887 0.054140265 0
-10.060887 0.054140283 0
-10.060888 0.054141519 0
-10.060888 0.05414155 0
-10.06089 0.054142649 0
-10.060917 0.054143652 0
-10.01875 0.01329869 0
-10.000442 -0.005725865 0
-10.000057 0.0050626219 0
-10.000045 4.2826277e-06 0
-10.000023 3.4737782e-06 0
-10.000039 3.1387211e-06 0
-10.000041 1.2875732e-06 0
-10.000041 1.2202152e-06 0
-10.000041 1.2201354e-06 0
-10.000041 1.2201351e-06 0
-10.000041 1.2201353e-06 0
-10.000041 1.2201346e-06 0
-10.000041 1.2217356e-06 0
-10.000041 1.2217017e-06 0
-10.000041 1.2216498e-06 0
-10.000041 1.2202863e-06 0
-10.000041 1.1367752e-06 0
-10.00004 9.4171139e-07 0
-10.00004 1.1341757e-06 0
-10.00004 1.1352338e-06 0
-10.00004 1.1369056e-06 0
-10.00004 1.1369451e-06 0
-10.00004 1.1369294e-06 0
-10.00004 1.1371438e-06 0
-10.000039 7.7642652e-07 0
-10.000027 -2.4110078e-05 0
-10.000009 -0.0050471216 0
-10 0.0050431063 0
-10 2.0774265e-05 0
-9.9999996 -1.3672254e-07 0
-9.9999996 9.6463962e-09 0
-9.9999997 1.3296475e-08 0
-9.9999997 1.3279536e-08 0
-9.9999997 1.327956e-08 0
-9.9999997 1.327956e-08 0
-9.9999997 1.3274682e-08 0
-9.9999997 1.3274673e-08 0
-9.9999997 1.3279575e-08 0
-9.9999997 1.3279589e-08 0
-9.9999997 1.328172e-08 0
-9.9999996 1.3281812e-08 0
-9.9999996 1.3279811e-08 0
-9.9999996 9.7033866e-09 0
-9.9999996 9.6911663e-09 0
-9.9999996 9.690845e-09 0
-9.9999996 9.6841651e-09 0
-9.9999995 9.6841905e-09 0
-9.9999997 9.7023532e-09 0
-9.9999996 9.8994816e-09 0
-9.9999996 1.4643784e-07 0
-9.9999996 -2.0895937e-05 0
-9.9999996 -0.0050429971 0
-9.9999996 0.0050429971 0
-9.9999996 2.0895962e-05 0
-9.9999995 -1.3672535e-07 0
-9.9999995 -1.9638175e-10 0
-9.9999995 6.5888801e-13 0
-9.9999995 1.8884837e-15 0
-9.9999995 7.1816525e-15 0
-9.9999995 8.2234672e-15 0
-9.9999995 8.3628388e-15 0
-9.9999994 2.8203395e-15 0
-9.9999994 -7.5195252e-12 0
-9.9999994 -7.5151125e-12 0
-9.9999994 3.943718e-13 0
-9.9999994 3.9213341e-13 0
-9.9999994 1.8374621e-15 0
-9.9999994 4.8495159e-15 0
-9.9999994 3.9669692e-15 0
-9.9999993 -3.6693987e-13 0
-9.9999993 4.5885802e-12 0
-9.9999992 -1.2679542e-11 0
-9.9999992 -1.8222141e-11 0
-9.9999992 1.9646615e-10 0
-9.9999992 1.3673101e-07 0
-9.9999992 -2.0895957e-05 0
-9.9999992 -0.0050429971 0
-9.9999992 0.0050429971 0
-9.9999992 2.089597e-05 0
-9.9999992 -1.3671244e-07 0
-9.9999992 -1.988548e-10 0
-9.9999992 -7.1866399e-12 0
-9.9999992 7.6965916e-15 0
-9.9999992 -8.8095833e-12 0
-9.9999992 -1.4750395e-11 0
-9.9999992 -6.1332024e-13 0
-9.9999992 5.3159127e-12 0
-9.9999992 3.433513e-16 0
-9.9999991 -4.8848579e-12 0
-9.9999991 -4.8898763e-12 0
-9.9999991 1.4155764e-14 0
-9.9999991 2.532618e-14 0
-9.9999991 -1.4072878e-12 0
-9.9999991 1.9672692e-12 0
-9.9999991 3.3796116e-12 0
-9.9999991 1.8821048e-11 0
-9.9999991 1.882803e-11 0
-9.999999 -6.8327365e-13 0
-9.999999 1.9636779e-10 0
-9.999999 1.3673102e-07 0
-9.999999 -2.0895974e-05 0
-9.999999 -0.0050429971 0
-9.999999 0.0050429971 0
-9.999999 2.0895951e-05 0
-9.999999 -1.3673667e-07 0
-9.999999 -1.9837695e-10 0
-9.9999989 -1.919861e-12 0
-9.9999989 -5.7663986e-13 0
-9.9999989 4.9795319e-15 0
-9.9999988 -1.2779429e-15 0
-9.9999988 1.4252648e-15 0
-9.9999987 -8.2291728e-15 0
-9.9999987 7.5212814e-12 0
-9.9999987 6.1516936e-12 0
-9.9999987 -1.6647889e-12 0
-9.9999987 -1.3424063e-11 0
-9.9999987 -2.7894132e-11 0
-9.9999987 1.2383512e-11 0
-9.9999986 2.737372e-11 0
-9.9999985 6.1246087e-13 0
-9.9999985 6.2221598e-13 0
-9.9999985 1.0429856e-11 0
-9.9999985 9.7691679e-12 0
-9.9999985 1.9663461e-10 0
-9.9999985 1.3673127e-07 0
-9.9999985 -2.0895956e-05 0
-9.9999984 -0.0050429971 0
-9.9999984 0.0050429971 0
-9.9999984 2.0895957e-05 0
-9.9999984 -1.3673392e-07 0
-9.9999984 -1.9141644e-10 0
-9.9999984 8.8028507e-12 0
-9.9999983 -8.207902e-12 0
-9.9999983 6.0851769e-13 0
-9.9999983 1.5019873e-11 0
-9.9999983 5.8405622e-12 0
-9.9999983 -1.0310745e-13 0
-9.9999983 2.6184103e-13 0
-9.9999983 7.2912002e-12 0
-9.9999982 7.3070324e-12 0
-9.9999981 2.7051185e-13 0
-9.9999981 -1.8945433e-11 0
-9.9999979 -3.0255839e-11 0
-9.9999983 6.8132555e-11 0
-9.9999983 5.3712208e-11 0
-9.9999983 4.3538203e-11 0
-9.9999983 2.9205266e-11 0
-9.9999983 2.1753775e-11 0
-9.9999983 2.3313523e-10 0
-9.9999983 1.3678708e-07 0
-9.9999983 -2.0895883e-05 0
-9.9999983 -0.005042997 0
-9.9999983 0.0050429971 0
-9.9999983 2.0896254e-05 0
-9.9999983 -1.3668575e-07 0
-9.9999982 -1.4896355e-10 0
-9.9999982 4.8611065e-11 0
-9.9999982 4.3751696e-11 0
-9.9999982 3.9198797e-11 0
-9.9999982 3.9193969e-11 0
-9.9999982 4.3291507e-11 0
-9.9999982 4.3283507e-11 0
-9.9999982 4.3288112e-11 0
-9.9999982 4.4787798e-11 0
-9.9999982 3.0591388e-11 0
-9.9999982 5.7883575e-11 0
-9.9999982 8.7456647e-11 0
-9.9999977 -6.8309839e-10 0
-9.9999977 4.8773278e-07 0
-9.9999977 4.8732793e-07 0
-9.9999977 4.873262e-07 0
-9.9999976 4.8732227e-07 0
-9.9999976 4.8732481e-07 0
-9.9999975 4.8752242e-07 0
-9.9999975 6.2400996e-07 0
-9.9999973 -2.0408554e-05 0
-9.9999973 -0.0050425086 0
-9.99999 0.0050429963 0
-9.9999972 2.1387385e-05 0
-9.9999972 3.5068277e-07 0
-9.9999972 4.8721455e-07 0
-9.9999972 4.8758339e-07 0
-9.9999972 4.8705277e-07 0
-9.9999972 4.8708171e-07 0
-9.9999971 4.8706737e-07 0
-9.9999971 4.8706738e-07 0
-9.9999971 4.8707309e-07 0
-9.9999971 4.8708921e-07 0
-9.9999971 4.8685068e-07 0
-9.9999971 4.8734079e-07 0
-9.9999971 4.8738829e-07 0
-9.9999971 4.8740385e-07 0
-9.9999971 4.8386144e-07 0
-9.9999966 9.7737486e-07 0
-9.9999966 9.7386487e-07 0
-9.9999966 9.7386342e-07 0
-9.9999966 9.7380812e-07 0
-9.9999961 1.4609845e-06 0
-9.999996 1.4610987e-06 0
-9.999996 1.5967673e-06 0
-9.9999956 -1.8947302e-05 0
-9.9999955 -0.0050410464 0
-9.9999663 0.0050429918 0
-9.9999955 2.2853823e-05 0
-9.9999955 1.8111065e-06 0
-9.9999955 1.9476248e-06 0
-9.9999956 1.9515783e-06 0
-9.9999956 1.4576522e-06 0
-9.9999956 1.4614124e-06 0
-9.9999956 1.4614287e-06 0
-9.9999955 1.4614248e-06 0
-9.9999955 1.46143e-06 0
-9.9999955 1.4614168e-06 0
-9.9999956 1.4567749e-06 0
-9.999995 1.9524934e-06 0
-9.999995 1.9492513e-06 0
-9.999995 1.9492256e-06 0
-9.999995 1.9492874e-06 0
-9.9999949 1.9497872e-06 0
-9.9999948 1.9495523e-06 0
-9.9999948 1.9495535e-06 0
-9.9999948 1.9495204e-06 0
-9.9999942 2.4366397e-06 0
-9.9999941 2.436814e-06 0
-9.9999941 2.5731919e-06 0
-9.999994 -1.8459002e-05 0
-9.999994 -0.0050405542 0
-9.9999576 0.0050429907 0
-9.9999938 2.3352466e-05 0
-9.9999938 2.3002011e-06 0
-9.9999938 2.4366923e-06 0
-9.9999938 2.4369751e-06 0
-9.9999938 2.4364448e-06 0
-9.9999937 2.4366196e-06 0
-9.9999937 2.4365836e-06 0
-9.9999936 2.4366458e-06 0
-9.9999936 2.4366576e-06 0
-9.9999936 2.4365843e-06 0
-9.9999936 2.4210579e-06 0
-9.9999874 6.8335107e-06 0
-9.9999874 6.8177086e-06 0
-9.9999874 6.8176246e-06 0
-9.9999874 6.8176916e-06 0
-9.9999874 6.817706e-06 0
-9.9999873 6.8177015e-06 0
-9.9999873 6.816921e-06 0
-9.9999873 6.8185879e-06 0
-9.9999872 6.8187137e-06 0
-9.9999872 6.8189008e-06 0
-9.9999872 6.9530473e-06 0
-9.9999866 -1.3588114e-05 0
-9.9999865 -0.0050356836 0
-9.9998769 0.0050429717 0
-9.9999865 2.8248988e-05 0
-9.9999859 7.1686367e-06 0
-9.9999858 7.7919205e-06 0
-9.9999853 8.2796696e-06 0
-9.9999853 8.2796127e-06 0
-9.9999853 8.2796326e-06 0
-9.9999853 8.2791903e-06 0
-9.9999847 8.7670629e-06 0
-9.9999847 8.7665865e-06 0
-9.9999847 8.7665788e-06 0
-9.9999847 8.7669609e-06 0
-9.9999847 8.7691745e-06 0
-9.9999847 8.7680634e-06 0
-9.9999847 8.7674764e-06 0
-9.9999842 9.2556589e-06 0
-9.9999841 9.2552453e-06 0
-9.9999841 9.2552092e-06 0
-9.9999841 9.2436248e-06 0
-9.9999801 1.3161259e-05 0
-9.99998 1.3149626e-05 0
-9.9999795 1.3149584e-05 0
-9.9999795 1.3773578e-05 0
-9.9999795 -7.2589443e-06 0
-9.9999789 -0.0050288535 0
-9.999767 0.0050429612 0
-9.9999787 3.5087011e-05 0
-9.9999782 1.3986662e-05 0
-9.9999782 1.4611051e-05 0
-9.9999782 1.4608429e-05 0
-9.9999773 1.5586827e-05 0
-9.9999771 1.5584754e-05 0
-9.9999771 1.558492e-05 0
-9.9999771 1.5584768e-05 0
-9.9999771 1.5585461e-05 0
-9.9999765 1.5585121e-05 0
-9.9999765 1.6072899e-05 0
-9.9999766 1.607248e-05 0
-9.9999766 1.6072231e-05 0
-9.9999761 1.655735e-05 0
-9.9999755 1.7048861e-05 0
-9.9999754 1.7046592e-05 0
-9.9999748 1.7046356e-05 0
-9.9999748 1.7533495e-05 0
-9.9999749 1.7534949e-05 0
-9.9999748 1.7533852e-05 0
-9.9999748 1.7534113e-05 0
-9.9999748 1.7671458e-05 0
-9.9999748 -3.3610622e-06 0
-9.9999747 -0.0050254374 0
-9.9997341 0.005043326 0
-10 3.4644121e-05 0
-9.9999995 1.4478317e-05 0
-9.9999989 1.5101259e-05 0
-9.9999984 1.5099979e-05 0
-9.999998 1.5584387e-05 0
-9.9999974 1.656238e-05 0
-9.9999963 1.7050214e-05 0
-9.9999956 1.7531155e-05 0
-9.9999945 1.8512305e-05 0
-9.9999945 1.8994957e-05 0
-9.9999945 1.8995052e-05 0
-9.999994 1.8994902e-05 0
-9.999994 1.9478938e-05 0
-9.9999934 1.9971894e-05 0
-9.9999929 1.9968083e-05 0
-9.9999929 2.045668e-05 0
-9.9999929 2.0455846e-05 0
-9.9999929 2.0455831e-05 0
-9.9999846 2.045559e-05 0
-9.999984 2.1429876e-05 0
-9.9999757 2.1914989e-05 0
-9.9999757 2.2051025e-05 0
-9.9999758 9.7687423e-07 0
-9.9999768 -0.0050214176 0
-10.004404 0.0047637404 0
-10.004998 4.4005639e-05 0
-10.004998 2.1819894e-05 0
-10.004997 2.2444919e-05 0
-10.004997 2.2930947e-05 0
-10.004997 2.2929979e-05 0
-10.004997 2.2931582e-05 0
-10.004997 2.2441521e-05 0
-10.005013 2.2440414e-05 0
-10.005013 2.2440595e-05 0
-10.005012 2.2438755e-05 0
-10.005012 2.2929171e-05 0
-10.005012 2.2926539e-05 0
-10.005011 2.3416202e-05 0
-10.005011 2.3415643e-05 0
-10.005011 2.3415417e-05 0
-10.005011 2.3414956e-05 0
-10.005011 2.3904005e-05 0
-10.005011 2.3903853e-05 0
-10.005011 2.3902768e-05 0
-10.005009 2.4884395e-05 0
-10.00501 2.4878818e-05 0
-10.005001 2.5009103e-05 0
-10.005002 3.3891876e-06 0
-10.004722 -0.004738932 0
9.4900747 -4.0703595 0
9.1598791 -6.8197542 0
-7.9078161 -4.5381908 0
6.9111803 -11.279372 0
-9.1856054 1.7610702 0
-9.0964951 0.29734038 0
-9.0423504 -0.049301899 0
-9.0345167 1.0787328 0
-9.0987295 -0.84211383 0
2.0135884 5.4015781 0
-7.8639582 2.4017125 0
-2.1837043 9.5293909 0
6.0134305 -9.3644976 0
2.4138618 -3.3466384 0
-7.4062438 6.1937348 0
-6.1116726 -1.2775626 0
-8.5212616 5.3864007 0
-11.244152 2.0009798 0
-2.4400999 8.8340729 0
-8.2677825 5.6706065 0
-12.498181 -2.1682517 0
2.4213231 9.9814915 0
-12.749593 -1.2913543 0
-8.1786602 5.7962911 0
-8.2803498 3.8276255 0
9.0070316 -3.4876943 0
-0.77096063 8.1327988 0
-5.2052993 -2.5926776 0
4.7654588 4.2692991 0
10.841669 0.17939864 0
10.872528 1.5935462 0
10.915294 1.8911834 0
10.994927 0.7588821 0
10.512988 2.8940906 0
-8.110002 -7.4275382 0
11.904556 -1.2200578 0
7.3498987 -9.8287662 0
-8.0280457 4.8414758 0
2.5182247 -3.7093309 0
-1.2330966 10.771042 0
-7.051577 -8.0058003 0
4.4033619 9.5665382 0
5.113891 9.2283205 0
2.4537429 -8.985438 0
-3.4927601 9.5912803 0
-6.503532 7.8842824 0
-6.9067067 7.4881967 0
-8.4284264 5.592405 0
0.59186766 0.8906572 0
-0.18823458 9.519836 0
8.0196827 -4.1942467 0
-6.3696271 -9.8156008 0
-6.3500912 8.6526308 0
7.628919 8.3479483 0
7.5986929 8.5096923 0
7.5720862 8.5867885 0
7.5417009 8.6977156 0
7.5795063 8.5743863 0
7.5486641 8.6353889 0
7.3909737 9.1046277 0
7.3492489 9.2251831 0
7.6229785 7.8413457 0
7.6176169 7.970469 0
7.4440552 7.7095924 0
7.6239506 -5.0592943 0
-7.7229535 5.3972386 0
0.39977452 8.8912936 0
9.0221843 3.8067648 0
-2.2543547 3.6603104 0
-6.6375792 8.263758 0
-6.2956508 8.6099209 0