# vtk DataFile Version 4.0
hesp visualization file
ASCII
DATASET UNSTRUCTURED_GRID
POINTS 1250 double
30.322475 1.1224893 4
30.322476 2.2449243 4
30.322476 3.3673861 4
30.322476 4.4898482 4
30.322476 5.6123102 4
30.322476 6.7347723 4
30.322476 7.8572343 4
30.322476 8.9796964 4
30.322476 10.102158 4
30.322476 11.22462 4
30.322476 12.347083 4
30.322476 13.469545 4
30.322476 14.592007 4
30.322476 15.714469 4
30.322476 16.836931 4
30.322476 17.959393 4
30.322476 19.081855 4
30.322476 20.204317 4
30.322476 21.326779 4
30.322476 22.449241 4
30.322476 23.571703 4
30.322476 24.694165 4
30.322476 25.816627 4
30.322476 26.939089 4
30.322475 28.061524 4
31.444924 1.1224903 4
31.444924 2.2449243 4
31.444924 3.3673861 4
31.444924 4.4898482 4
31.444924 5.6123102 4
31.444924 6.7347723 4
31.444924 7.8572343 4
31.444924 8.9796964 4
31.444924 10.102158 4
31.444924 11.22462 4
31.444924 12.347083 4
31.444924 13.469545 4
31.444924 14.592007 4
31.444924 15.714469 4
31.444924 16.836931 4
31.444924 17.959393 4
31.444924 19.081855 4
31.444924 20.204317 4
31.444924 21.326779 4
31.444924 22.449241 4
31.444924 23.571703 4
31.444924 24.694165 4
31.444924 25.816627 4
31.444924 26.939089 4
31.444924 28.061523 4
32.567386 1.1224903 4
32.567386 2.2449243 4
32.567386 3.3673861 4
32.567386 4.4898482 4
32.567386 5.6123102 4
32.567386 6.7347723 4
32.567386 7.8572343 4
32.567386 8.9796964 4
32.567386 10.102158 4
32.567386 11.22462 4
32.567386 12.347083 4
32.567386 13.469545 4
32.567386 14.592007 4
32.567386 15.714469 4
32.567386 16.836931 4
32.567386 17.959393 4
32.567386 19.081855 4
32.567386 20.204317 4
32.567386 21.326779 4
32.567386 22.449241 4
32.567386 23.571703 4
32.567386 24.694165 4
32.567386 25.816627 4
32.567386 26.939089 4
32.567386 28.061523 4
33.689848 1.1224903 4
33.689848 2.2449243 4
33.689848 3.3673861 4
33.689848 4.4898482 4
33.689848 5.6123102 4
33.689848 6.7347723 4
33.689848 7.8572343 4
33.689848 8.9796964 4
33.689848 10.102158 4
33.689848 11.22462 4
33.689848 12.347083 4
33.689848 13.469545 4
33.689848 14.592007 4
33.689848 15.714469 4
33.689848 16.836931 4
33.689848 17.959393 4
33.689848 19.081855 4
33.689848 20.204317 4
33.689848 21.326779 4
33.689848 22.449241 4
33.689848 23.571703 4
33.689848 24.694165 4
33.689848 25.816627 4
33.689848 26.939089 4
33.689848 28.061523 4
34.81231 1.1224903 4
34.81231 2.2449243 4
34.81231 3.3673861 4
34.81231 4.4898482 4
34.81231 5.6123102 4
34.81231 6.7347723 4
34.81231 7.8572343 4
34.81231 8.9796964 4
34.81231 10.102158 4
34.81231 11.22462 4
34.81231 12.347083 4
34.81231 13.469545 4
34.81231 14.592007 4
34.81231 15.714469 4
34.81231 16.836931 4
34.81231 17.959393 4
34.81231 19.081855 4
34.81231 20.204317 4
34.81231 21.326779 4
34.81231 22.449241 4
34.81231 23.571703 4
34.81231 24.694165 4
34.81231 25.816627 4
34.81231 26.939089 4
34.81231 28.061523 4
35.934772 1.1224903 4
35.934772 2.2449243 4
35.934772 3.3673861 4
35.934772 4.4898482 4
35.934772 5.6123102 4
35.934772 6.7347723 4
35.934772 7.8572343 4
35.934772 8.9796964 4
35.934772 10.102158 4
35.934772 11.22462 4
35.934772 12.347083 4
35.934772 13.469545 4
35.934772 14.592007 4
35.934772 15.714469 4
35.934772 16.836931 4
35.934772 17.959393 4
35.934772 19.081855 4
35.934772 20.204317 4
35.934772 21.326779 4
35.934772 22.449241 4
35.934772 23.571703 4
35.934772 24.694165 4
35.934772 25.816627 4
35.934772 26.939089 4
35.934772 28.061523 4
37.057234 1.1224903 4
37.057234 2.2449243 4
37.057234 3.3673861 4
37.057234 4.4898482 4
37.057234 5.6123102 4
37.057234 6.7347723 4
37.057234 7.8572343 4
37.057234 8.9796964 4
37.057234 10.102158 4
37.057234 11.22462 4
37.057234 12.347083 4
37.057234 13.469545 4
37.057234 14.592007 4
37.057234 15.714469 4
37.057234 16.836931 4
37.057234 17.959393 4
37.057234 19.081855 4
37.057234 20.204317 4
37.057234 21.326779 4
37.057234 22.449241 4
37.057234 23.571703 4
37.057234 24.694165 4
37.057234 25.816627 4
37.057234 26.939089 4
37.057234 28.061523 4
38.179696 1.1224903 4
38.179696 2.2449243 4
38.179696 3.3673861 4
38.179696 4.4898482 4
38.179696 5.6123102 4
38.179696 6.7347723 4
38.179696 7.8572343 4
38.179696 8.9796964 4
38.179696 10.102158 4
38.179696 11.22462 4
38.179696 12.347083 4
38.179696 13.469545 4
38.179696 14.592007 4
38.179696 15.714469 4
38.179696 16.836931 4
38.179696 17.959393 4
38.179696 19.081855 4
38.179696 20.204317 4
38.179696 21.326779 4
38.179696 22.449241 4
38.179696 23.571703 4
38.179696 24.694165 4
38.179696 25.816627 4
38.179696 26.939089 4
38.179696 28.061523 4
39.302158 1.1224903 4
39.302158 2.2449243 4
39.302158 3.3673861 4
39.302158 4.4898482 4
39.302158 5.6123102 4
39.302158 6.7347723 4
39.302158 7.8572343 4
39.302158 8.9796964 4
39.302158 10.102158 4
39.302158 11.22462 4
39.302158 12.347083 4
39.302158 13.469545 4
39.302158 14.592007 4
39.302158 15.714469 4
39.302158 16.836931 4
39.302158 17.959393 4
39.302158 19.081855 4
39.302158 20.204317 4
39.302158 21.326779 4
39.302158 22.449241 4
39.302158 23.571703 4
39.302158 24.694165 4
39.302158 25.816627 4
39.302158 26.939089 4
39.302158 28.061523 4
40.42462 1.1224903 4
40.42462 2.2449243 4
40.42462 3.3673861 4
40.42462 4.4898482 4
40.42462 5.6123102 4
40.42462 6.7347723 4
40.42462 7.8572343 4
40.42462 8.9796964 4
40.42462 10.102158 4
40.42462 11.22462 4
40.42462 12.347083 4
40.42462 13.469545 4
40.42462 14.592007 4
40.42462 15.714469 4
40.42462 16.836931 4
40.42462 17.959393 4
40.42462 19.081855 4
40.42462 20.204317 4
40.42462 21.326779 4
40.42462 22.449241 4
40.42462 23.571703 4
40.42462 24.694165 4
40.42462 25.816627 4
40.42462 26.939089 4
40.42462 28.061523 4
41.547083 1.1224903 4
41.547083 2.2449243 4
41.547083 3.3673861 4
41.547083 4.4898482 4
41.547083 5.6123102 4
41.547083 6.7347723 4
41.547083 7.8572343 4
41.547083 8.9796964 4
41.547083 10.102158 4
41.547083 11.22462 4
41.547083 12.347083 4
41.547083 13.469545 4
41.547083 14.592007 4
41.547083 15.714469 4
41.547083 16.836931 4
41.547083 17.959393 4
41.547083 19.081855 4
41.547083 20.204317 4
41.547083 21.326779 4
41.547083 22.449241 4
41.547083 23.571703 4
41.547083 24.694165 4
41.547083 25.816627 4
41.547083 26.939089 4
41.547083 28.061523 4
42.669545 1.1224903 4
42.669545 2.2449243 4
42.669545 3.3673861 4
42.669545 4.4898482 4
42.669545 5.6123102 4
42.669545 6.7347723 4
42.669545 7.8572343 4
42.669545 8.9796964 4
42.669545 10.102158 4
42.669545 11.22462 4
42.669545 12.347083 4
42.669545 13.469545 4
42.669545 14.592007 4
42.669545 15.714469 4
42.669545 16.836931 4
42.669545 17.959393 4
42.669545 19.081855 4
42.669545 20.204317 4
42.669545 21.326779 4
42.669545 22.449241 4
42.669545 23.571703 4
42.669545 24.694165 4
42.669545 25.816627 4
42.669545 26.939089 4
42.669545 28.061523 4
43.792007 1.1224903 4
43.792007 2.2449243 4
43.792007 3.3673861 4
43.792007 4.4898482 4
43.792007 5.6123102 4
43.792007 6.7347723 4
43.792007 7.8572343 4
43.792007 8.9796964 4
43.792007 10.102158 4
43.792007 11.22462 4
43.792007 12.347083 4
43.792007 13.469545 4
43.792007 14.592007 4
43.792007 15.714469 4
43.792007 16.836931 4
43.792007 17.959393 4
43.792007 19.081855 4
43.792007 20.204317 4
43.792007 21.326779 4
43.792007 22.449241 4
43.792007 23.571703 4
43.792007 24.694165 4
43.792007 25.816627 4
43.792007 26.939089 4
43.792007 28.061523 4
44.914469 1.1224903 4
44.914469 2.2449243 4
44.914469 3.3673861 4
44.914469 4.4898482 4
44.914469 5.6123102 4
44.914469 6.7347723 4
44.914469 7.8572343 4
44.914469 8.9796964 4
44.914469 10.102158 4
44.914469 11.22462 4
44.914469 12.347083 4
44.914469 13.469545 4
44.914469 14.592007 4
44.914469 15.714469 4
44.914469 16.836931 4
44.914469 17.959393 4
44.914469 19.081855 4
44.914469 20.204317 4
44.914469 21.326779 4
44.914469 22.449241 4
44.914469 23.571703 4
44.914469 24.694165 4
44.914469 25.816627 4
44.914469 26.939089 4
44.914469 28.061523 4
46.036931 1.1224903 4
46.036931 2.2449243 4
46.036931 3.3673861 4
46.036931 4.4898482 4
46.036931 5.6123102 4
46.036931 6.7347723 4
46.036931 7.8572343 4
46.036931 8.9796964 4
46.036931 10.102158 4
46.036931 11.22462 4
46.036931 12.347083 4
46.036931 13.469545 4
46.036931 14.592007 4
46.036931 15.714469 4
46.036931 16.836931 4
46.036931 17.959393 4
46.036931 19.081855 4
46.036931 20.204317 4
46.036931 21.326779 4
46.036931 22.449241 4
46.036931 23.571703 4
46.036931 24.694165 4
46.036931 25.816627 4
46.036931 26.939089 4
46.036931 28.061523 4
47.159393 1.1224903 4
47.159393 2.2449243 4
47.159393 3.3673861 4
47.159393 4.4898482 4
47.159393 5.6123102 4
47.159393 6.7347723 4
47.159393 7.8572343 4
47.159393 8.9796964 4
47.159393 10.102158 4
47.159393 11.22462 4
47.159393 12.347083 4
47.159393 13.469545 4
47.159393 14.592007 4
47.159393 15.714469 4
47.159393 16.836931 4
47.159393 17.959393 4
47.159393 19.081855 4
47.159393 20.204317 4
47.159393 21.326779 4
47.159393 22.449241 4
47.159393 23.571703 4
47.159393 24.694165 4
47.159393 25.816627 4
47.159393 26.939089 4
47.159393 28.061523 4
48.281855 1.1224903 4
48.281855 2.2449243 4
48.281855 3.3673861 4
48.281855 4.4898482 4
48.281855 5.6123102 4
48.281855 6.7347723 4
48.281855 7.8572343 4
48.281855 8.9796964 4
48.281855 10.102158 4
48.281855 11.22462 4
48.281855 12.347083 4
48.281855 13.469545 4
48.281855 14.592007 4
48.281855 15.714469 4
48.281855 16.836931 4
48.281855 17.959393 4
48.281855 19.081855 4
48.281855 20.204317 4
48.281855 21.326779 4
48.281855 22.449241 4
48.281855 23.571703 4
48.281855 24.694165 4
48.281855 25.816627 4
48.281855 26.939089 4
48.281855 28.061523 4
49.404317 1.1224903 4
49.404317 2.2449243 4
49.404317 3.3673861 4
49.404317 4.4898482 4
49.404317 5.6123102 4
49.404317 6.7347723 4
49.404317 7.8572343 4
49.404317 8.9796964 4
49.404317 10.102158 4
49.404317 11.22462 4
49.404317 12.347083 4
49.404317 13.469545 4
49.404317 14.592007 4
49.404317 15.714469 4
49.404317 16.836931 4
49.404317 17.959393 4
49.404317 19.081855 4
49.404317 20.204317 4
49.404317 21.326779 4
49.404317 22.449241 4
49.404317 23.571703 4
49.404317 24.694165 4
49.404317 25.816627 4
49.404317 26.939089 4
49.404317 28.061523 4
50.526779 1.1224903 4
50.526779 2.2449243 4
50.526779 3.3673861 4
[...]
POINT_DATA 1250
SCALARS m double
LOOKUP_TABLE default
1
1
1
1
1
1
1
1
1
1
1
1
1
1
1
1
1
1
1
1
1
1
1
1
1
1
1
1
1
1
1
1
1
1
1
1
1
1
1
1
1
1
1
1
1
1
1
1
1
1
1
1
1
1
1
1
1
1
1
1
1
1
1
1
1
1
1
1
1
1
1
1
1
1
1
1
1
1
1
1
1
1
1
1
1
1
1
1
1
1
1
1
1
1
1
1
1
1
1
1
1
1
1
1
1
1
1
1
1
1
1
1
1
1
1
1
1
1
1
1
1
1
1
1
1
1
1
1
1
1
1
1
1
1
1
1
1
1
1
1
1
1
1
1
1
1
1
1
1
1
1
1
1
1
1
1
1
1
1
1
1
1
1
1
1
1
1
1
1
1
1
1
1
1
1
1
1
1
1
1
1
1
1
1
1
1
1
1
1
1
1
1
1
1
1
1
1
1
1
1
1
1
1
1
1
1
1
1
1
1
1
1
1
1
1
1
1
1
1
1
1
1
1
1
1
1
1
1
1
1
1
1
1
1
1
1
1
1
1
1
1
1
1
1
1
1
1
1
1
1
1
1
1
1
1
1
1
1
1
1
1
1
1
1
1
1
1
1
1
1
1
1
1
1
1
1
1
1
1
1
1
1
1
1
1
1
1
1
1
1
1
1
1
1
1
1
1
1
1
1
1
1
1
1
1
1
1
1
1
1
1
1
1
1
1
1
1
1
1
1
1
1
1
1
1
1
1
1
1
1
1
1
1
1
1
1
1
1
1
1
1
1
1
1
1
1
1
1
1
1
1
1
1
1
1
1
1
1
1
1
1
1
1
1
1
1
1
1
1
1
1
1
1
1
1
1
1
1
1
1
1
1
1
1
1
1
1
1
1
1
1
1
1
1
1
1
1
1
1
1
1
1
1
1
1
1
1
1
1
1
1
1
1
1
1
1
1
1
1
1
1
1
1
1
1
1
1
1
1
1
1
1
1
1
1
1
1
1
1
1
1
1
1
1
1
1
1
1
1
1
1
1
1
1
1
1
1
1
1
1
1
1
1
1
1
1
1
1
1
1
1
1
1
1
1
1
1
1
1
1
1
1
1
1
1
1
1
1
1
1
1
1
1
1
1
1
1
1
1
1
1
1
1
1
1
1
1
1
1
1
1
1
1
1
1
1
1
1
1
1
1
1
1
1
1
1
1
1
1
1
1
1
1
1
1
1
1
1
1
1
1
1
1
1
1
1
1
1
1
1
1
1
1
1
1
1
1
1
1
1
1
1
1
1
1
1
1
1
1
1
1
1
1
1
1
1
1
1
1
1
1
1
1
1
1
1
1
1
1
1
1
1
1
1
1
1
1
1
1
1
1
1
1
1
1
1
1
1
1
1
1
1
1
1
1
1
1
1
1
1
1
1
1
1
1
1
1
1
1
1
1
1
1
1
1
1
1
1
1
1
1
1
1
1
1
1
1
1
1
1
1
1
1
1
1
1
1
1
1
1
1
1
1
1
1
1
1
1
1
1
1
1
1
1
1
1
1
1
1
1
1
1
1
1
1
1
1
1
1
1
1
1
1
1
1
1
1
1
1
1
1
1
1
1
1
1
1
1
1
1
1
1
1
1
1
1
1
1
1
1
1
1
1
1
1
1
1
1
1
1
1
1
1
1
1
1
1
1
1
1
1
1
1
1
1
1
1
1
1
1
1
1
1
1
1
1
1
1
1
1
1
1
1
1
1
1
1
1
1
1
1
1
1
1
1
1
1
1
1
1
1
1
1
1
1
1
1
1
1
1
1
1
1
1
1
1
1
1
1
1
1
1
1
1
1
1
1
1
1
1
1
1
1
1
1
1
1
1
1
1
1
1
1
1
1
1
1
1
1
1
1
1
1
1
1
1
1
1
1
1
1
1
1
1
1
1
1
1
1
1
1
1
1
1
1
1
1
1
1
1
1
1
1
1
1
1
1
1
1
1
1
1
1
1
1
1
1
1
1
1
1
1
1
1
1
1
1
1
1
1
1
1
1
1
1
1
1
1
1
1
1
1
1
1
1
1
1
1
1
1
1
1
1
1
1
1
1
1
1
1
1
1
1
1
1
1
1
1
1
1
1
1
1
1
1
1
1
1
1
1
1
1
1
1
1
1
1
1
1
1
1
1
1
1
1
1
1
1
1
1
1
1
1
1
1
1
1
1
1
1
1
1
1
1
1
1
1
1
1
1
1
1
1
1
1
1
1
1
1
1
1
1
1
1
1
1
1
1
1
1
1
1
1
1
1
1
1
1
1
1
1
1
1
1
1
1
1
1
1
1
1
1
1
1
1
1
1
1
1
1
1
1
1
1
1
1
1
1
1
1
1
1
1
1
1
1
1
1
1
1
1
1
1
1
1
1
1
1
1
1
1
1
1
1
1
1
1
1
1
1
1
1
1
1
1
1
1
1
1
1
1
1
1
1
1
1
1
1
1
1
1
1
1
1
1
1
1
1
1
1
1
1
1
1
1
1
1
1
1
1
1
1
1
1
1
1
1
1
1
1
1
1
1
1
1
1
1
1
1
1
1
1
1
1
1
1
1
1
1
1
1
1
1
1
1
1
1
1
1
1
1
1
1
1
1
1
1
1
1
1
1
1
1
1
1
1
1
1
1
1
1
1
1
1
1
1
1
1
1
1
1
1
1
1
1
1
1
1
1
1
1
1
1
1
1
1
1
1
1
1
1
1
1
1
1
1
1
1
1
1
1
1
1
1
1
1
1
1
1
1
1
1
1
1
1
1
1
1
1
1
1
1
1
1
1
1
1
1
1
1
1
1
1
1
1
1
1
1
1
1
VECTORS v double
-10.00138 0.00070508899 0
-10.001372 5.6188397e-06 0
-10.001373 -3.3262049e-10 0
-10.001373 1.3397799e-10 0
-10.001373 1.3509444e-10 0
-10.001373 1.3509053e-10 0
-10.001373 1.3509053e-10 0
-10.001373 1.3509034e-10 0
-10.001373 1.3509102e-10 0
-10.001373 1.3509012e-10 0
-10.001373 1.351271e-10 0
-10.001373 1.3464402e-10 0
-10.001373 1.3581095e-10 0
-10.001373 1.3496754e-10 0
-10.001373 1.327039e-10 0
-10.001373 1.4038907e-10 0
-10.001373 1.4097517e-10 0
-10.001373 1.4097843e-10 0
-10.001373 1.4097844e-10 0
-10.001373 1.4097776e-10 0
-10.001373 1.4097695e-10 0
-10.001373 1.4200826e-10 0
-10.001373 6.0204002e-10 0
-10.001372 -5.6183213e-06 0
-10.00138 -0.00070509046 0
-10 0.0007065271 0
-10.000002 4.8330427e-06 0
-10.000002 -4.0826634e-10 0
-10.000002 -9.383609e-13 0
-10.000002 3.8131107e-14 0
-10.000002 3.8053731e-14 0
-10.000002 3.805621e-14 0
-10.000002 3.7855021e-14 0
-10.000002 3.8531375e-14 0
-10.000002 3.7648233e-14 0
-10.000002 3.8050064e-14 0
-10.000002 3.8453539e-14 0
-10.000002 3.760717e-14 0
-10.000002 3.8042511e-14 0
-10.000002 1.9688151e-14 0
-10.000002 2.4353938e-14 0
-10.000002 3.9326572e-14 0
-10.000002 3.9748299e-14 0
-10.000002 3.9765852e-14 0
-10.000002 4.014441e-14 0
-10.000002 3.9318022e-14 0
-10.000002 1.0172558e-12 0
-10.000002 4.0833829e-10 0
-10.000002 -4.8330405e-06 0
-10 -0.0007065271 0
-10 0.00070587008 0
-10 4.8329554e-06 0
-10 -4.0807641e-10 0
-10 -9.7753569e-13 0
-10 7.5002873e-17 0
-10 -2.9221018e-18 0
-10 -5.3769207e-19 0
-10 -2.0160232e-16 0
-10 4.7458032e-16 0
-10 -4.0831871e-16 0
-10 -6.6385559e-18 0
-10 3.9598102e-16 0
-10 -4.0569323e-16 0
-10 -1.7271903e-17 0
-10 8.0686532e-18 0
-10 4.2223122e-16 0
-10 -4.2281079e-16 0
-10 -1.4084568e-18 0
-10 1.6431364e-17 0
-10 3.9470523e-16 0
-10 -4.3179767e-16 0
-10 9.7749232e-13 0
-10 4.0807636e-10 0
-10 -4.8329554e-06 0
-10 -0.00070587008 0
-10 0.00070587008 0
-10 4.8329556e-06 0
-10 -4.080763e-10 0
-10 -9.7753602e-13 0
-10 7.5403588e-17 0
-10 -2.8833279e-18 0
-10 -6.2290054e-19 0
-10 -2.0195809e-16 0
-10 4.7451587e-16 0
-10 -4.0845889e-16 0
-10 -6.9227904e-18 0
-10 3.9553402e-16 0
-10 -4.0632994e-16 0
-10 -1.6876041e-17 0
-10 8.2144424e-18 0
-10 4.2238837e-16 0
-10 -4.2292494e-16 0
-10 -1.4595579e-18 0
-10 1.6417009e-17 0
-10 3.944759e-16 0
-10 -4.3213889e-16 0
-10 9.7749165e-13 0
-10 4.0807625e-10 0
-10 -4.8329556e-06 0
-10 -0.00070587008 0
-10 0.00070587008 0
-10 4.8329556e-06 0
-10 -4.080763e-10 0
-10 -9.7753582e-13 0
-10 7.520066e-17 0
-10 -2.9144013e-18 0
-10 -5.9960895e-19 0
-10 -2.0183356e-16 0
-10 4.7445527e-16 0
-10 -4.0840277e-16 0
-10 -6.8353534e-18 0
-10 3.9561444e-16 0
-10 -4.0601941e-16 0
-10 -1.7094929e-17 0
-10 8.1166269e-18 0
-10 4.2228568e-16 0
-10 -4.2284703e-16 0
-10 -1.4599279e-18 0
-10 1.6342228e-17 0
-10 3.9462999e-16 0
-10 -4.3209415e-16 0
-10 9.7749189e-13 0
-10 4.0807625e-10 0
-10 -4.8329556e-06 0
-10 -0.00070587008 0
-10 0.00070587008 0
-10 4.8329556e-06 0
-10 -4.080763e-10 0
-10 -9.7753588e-13 0
-10 7.5203731e-17 0
-10 -2.9696634e-18 0
-10 -5.9084107e-19 0
-10 -2.0177749e-16 0
-10 4.7444764e-16 0
-10 -4.0834593e-16 0
-10 -6.8743972e-18 0
-10 3.9559602e-16 0
-10 -4.0599679e-16 0
-10 -1.7100057e-17 0
-10 8.1568587e-18 0
-10 4.2228688e-16 0
-10 -4.2286273e-16 0
-10 -1.4615377e-18 0
-10 1.6347521e-17 0
-10 3.9463375e-16 0
-10 -4.3206067e-16 0
-10 9.7749197e-13 0
-10 4.0807625e-10 0
-10 -4.8329556e-06 0
-10 -0.00070587008 0
-10 0.00070587008 0
-10 4.8329556e-06 0
-10 -4.080763e-10 0
-10 -9.7753596e-13 0
-10 7.5225155e-17 0
-10 -2.9136856e-18 0
-10 -6.0381858e-19 0
-10 -2.0178635e-16 0
-10 4.7448898e-16 0
-10 -4.0843807e-16 0
-10 -6.8421258e-18 0
-10 3.9564591e-16 0
-10 -4.0603851e-16 0
-10 -1.7083341e-17 0
-10 8.1797479e-18 0
-10 4.2228862e-16 0
-10 -4.2286075e-16 0
-10 -1.4595579e-18 0
-10 1.6338947e-17 0
-10 3.9463983e-16 0
-10 -4.3210499e-16 0
-10 9.7749196e-13 0
-10 4.0807625e-10 0
-10 -4.8329556e-06 0
-10 -0.00070587008 0
-10 0.00070587008 0
-10 4.8329556e-06 0
-10 -4.080763e-10 0
-10 -9.7753587e-13 0
-10 7.5211115e-17 0
-10 -2.8798585e-18 0
-10 -6.0381858e-19 0
-10 -2.0182104e-16 0
-10 4.7448898e-16 0
-10 -4.0843807e-16 0
-10 -6.8074313e-18 0
-10 3.956806e-16 0
-10 -4.060732e-16 0
-10 -1.7083341e-17 0
-10 8.110359e-18 0
-10 4.2228862e-16 0
-10 -4.2286075e-16 0
-10 -1.4595579e-18 0
-10 1.6338947e-17 0
-10 3.9463983e-16 0
-10 -4.3210493e-16 0
-10 9.7749192e-13 0
-10 4.0807625e-10 0
-10 -4.8329556e-06 0
-10 -0.00070587008 0
-10 0.00070587008 0
-10 4.8329556e-06 0
-10 -4.080763e-10 0
-10 -9.7753581e-13 0
-10 7.5191516e-17 0
-10 -2.9237013e-18 0
-10 -5.997294e-19 0
-10 -2.0183404e-16 0
-10 4.7445527e-16 0
-10 -4.0840302e-16 0
-10 -6.8479783e-18 0
-10 3.9560158e-16 0
-10 -4.0602384e-16 0
-10 -1.7094206e-17 0
-10 8.1171087e-18 0
-10 4.2228616e-16 0
-10 -4.2284703e-16 0
-10 -1.4599279e-18 0
-10 1.6342228e-17 0
-10 3.946295e-16 0
-10 -4.3209441e-16 0
-10 9.7749193e-13 0
-10 4.0807625e-10 0
-10 -4.8329556e-06 0
-10 -0.00070587008 0
-10 0.00070587008 0
-10 4.8329556e-06 0
-10 -4.080763e-10 0
-10 -9.7753315e-13 0
-10 7.8370518e-17 0
-10 -2.9197358e-18 0
-10 -6.2004536e-19 0
-10 -2.0191284e-16 0
-10 4.7447242e-16 0
-10 -4.0837061e-16 0
-10 -6.9451549e-18 0
-10 3.9546571e-16 0
-10 -4.0623871e-16 0
-10 -1.6939533e-17 0
-10 8.2272474e-18 0
-10 4.2238738e-16 0
-10 -4.2288784e-16 0
-10 -1.4598929e-18 0
-10 1.6371112e-17 0
-10 3.9453271e-16 0
-10 -4.321465e-16 0
-10 9.7749166e-13 0
-10 4.0807625e-10 0
-10 -4.8329556e-06 0
-10 -0.00070587008 0
-10 0.00070587008 0
-10 4.8329556e-06 0
-10 -4.080763e-10 0
-10 -1.13161e-12 0
-10 -1.5399547e-13 0
-10 -3.1413848e-18 0
-10 -4.3533304e-19 0
-10 -2.008327e-16 0
-10 4.7432154e-16 0
-10 -4.0812738e-16 0
-10 -6.1650872e-18 0
-10 3.9659101e-16 0
-10 -4.0402499e-16 0
-10 -1.86811e-17 0
-10 7.4769062e-18 0
-10 4.2146951e-16 0
-10 -4.226989e-16 0
-10 -1.4609049e-18 0
-10 1.6194201e-17 0
-10 3.9540689e-16 0
-10 -4.3162752e-16 0
-10 9.774938e-13 0
-10 4.0807625e-10 0
-10 -4.8329556e-06 0
-10 -0.00070587007 0
-10 0.00070587007 0
-10 4.8329556e-06 0
-10 -4.080763e-10 0
-10 -9.775382e-13 0
-9.9999999 7.0848509e-17 0
-9.9999999 -3.2058361e-18 0
-9.9999999 -4.7537423e-19 0
-9.9999999 -2.0102013e-16 0
-9.9999999 4.7431944e-16 0
-9.9999999 -4.0814807e-16 0
-9.9999999 -6.2905548e-18 0
-9.9999999 3.9636462e-16 0
-9.9999999 -4.0430946e-16 0
-9.9999999 -1.8455879e-17 0
-9.9999999 7.6575626e-18 0
-9.9999999 4.2159606e-16 0
-9.9999999 -4.2271112e-16 0
-9.9999999 -1.4613558e-18 0
-9.9999999 1.6242437e-17 0
-9.9999999 3.9524995e-16 0
-9.9999999 -4.3171679e-16 0
-9.9999999 9.7749349e-13 0
-9.9999999 4.0807625e-10 0
-9.9999999 -4.8329556e-06 0
-9.9999999 -0.00070587007 0
-9.9999999 0.00070587007 0
-9.9999999 4.8329556e-06 0
-9.9999999 -4.0808058e-10 0
-9.9999999 -8.2345978e-13 0
-9.9999999 1.541441e-13 0
-9.9999999 -2.7860141e-18 0
-9.9999999 -6.8953443e-19 0
-9.9999999 -2.0239237e-16 0
-9.9999999 4.7490977e-16 0
-9.9999999 -4.0851774e-16 0
-9.9999999 -7.0648956e-18 0
-9.9999999 3.9537753e-16 0
-9.9999999 -4.07257e-16 0
-9.9999999 -1.5821902e-17 0
-9.9999999 8.2554257e-18 0
-9.9999999 4.2276495e-16 0
-9.9999999 -4.2295723e-16 0
-9.9999999 -1.4592692e-18 0
-9.9999999 1.6436342e-17 0
-9.9999999 3.9415989e-16 0
-9.9999999 -4.3210343e-16 0
-9.9999999 9.7749101e-13 0
-9.9999999 4.0807625e-10 0
-9.9999999 -4.8329556e-06 0
-9.9999999 -0.00070587008 0
-9.9999999 0.00070587008 0
-9.9999999 4.8329556e-06 0
-9.9999999 -4.080763e-10 0
-9.9999999 -9.7753527e-13 0
-9.9999999 7.4376442e-17 0
-9.9999999 -2.9895683e-18 0
-9.9999999 -5.3100993e-19 0
-9.9999999 -2.0131466e-16 0
-9.9999999 4.7459441e-16 0
-9.9999999 -4.0827939e-16 0
-9.9999999 -6.3835867e-18 0
-9.9999999 3.962817e-16 0
-9.9999999 -4.0504292e-16 0
-9.9999999 -1.7690539e-17 0
-9.9999999 7.6751791e-18 0
-9.9999999 4.2189062e-16 0
-9.9999999 -4.2277457e-16 0
-9.9999999 -1.4607566e-18 0
-9.9999999 1.6255645e-17 0
-9.9999999 3.9502646e-16 0
-9.9999999 -4.3175464e-16 0
-9.9999999 9.7749297e-13 0
-9.9999999 4.0807625e-10 0
-9.9999999 -4.8329556e-06 0
-9.9999999 -0.00070587008 0
-9.9999999 0.00070587008 0
-9.9999999 4.8329556e-06 0
-9.9999999 -4.0807202e-10 0
-9.9999999 -9.7753544e-13 0
-9.9999999 7.4403541e-17 0
-9.9999999 -3.1043094e-18 0
-9.9999999 -5.2254521e-19 0
-9.9999999 -2.0129638e-16 0
-9.9999999 1.4926187e-13 0
-9.9999999 1.4837998e-13 0
-9.9999999 -5.6161496e-18 0
-9.9999999 3.9652891e-16 0
-9.9999999 -4.0423542e-16 0
-9.9999999 -1.8553045e-17 0
-9.9999999 7.7630527e-18 0
-9.9999999 4.2457343e-16 0
-9.9999999 -4.1979932e-16 0
-9.9999999 -1.2071608e-18 0
-9.9999999 1.6276789e-17 0
-9.9999999 3.9510578e-16 0
-9.9999999 -4.3180025e-16 0
-9.9999999 9.774931e-13 0
-9.9999999 4.0807625e-10 0
-9.9999999 -4.8329556e-06 0
-9.9999999 -0.00070587008 0
-9.9999999 0.00070587008 0
-9.9999999 4.8329556e-06 0
-9.9999999 -4.080763e-10 0
-9.9999999 -9.7753631e-13 0
-9.9999999 7.5899079e-17 0
-9.9999999 -2.8283243e-18 0
-9.9999999 -6.6903501e-19 0
-9.9999999 -2.0220583e-16 0
-9.9999999 4.7173378e-16 0
-9.9999999 -4.1167528e-16 0
-9.9999999 -7.1164441e-18 0
-9.9999999 3.9553926e-16 0
-9.9999999 -4.0619279e-16 0
-9.9999999 -3.3981173e-15 0
-9.9999999 -5.0928563e-14 0
-9.9999999 -1.5026754e-13 0
-9.9999999 -1.035581e-13 0
-9.9999999 -1.4521918e-18 0
-9.9999999 1.6510445e-17 0
-9.9999999 3.9416657e-16 0
-9.9999999 -4.3216011e-16 0
-9.9999999 9.7749105e-13 0
-9.9999999 4.0807625e-10 0
-9.9999999 -4.8329556e-06 0
-9.9999999 -0.00070587008 0
-9.9999999 0.00070587008 0
-9.9999999 4.8329556e-06 0
-9.9999999 -4.080763e-10 0
-9.9999999 -9.7753605e-13 0
-9.9999999 7.5879877e-17 0
-9.9999999 -2.8254217e-18 0
-9.9999999 -6.6608084e-19 0
-9.9999999 -2.0229853e-16 0
-9.9999999 -1.4831289e-13 0
-9.9999999 -1.491963e-13 0
-9.9999999 -7.7493723e-18 0
-9.9999999 3.9525675e-16 0
-9.9999999 -3.9992131e-16 0
-9.9999999 -1.3791551e-17 0
-9.9999998 6.7058907e-18 0
-9.9999998 4.4119321e-16 0
-9.9999998 1.8855595e-14 0
-9.9999998 1.9259515e-14 0
-9.9999998 1.9277609e-14 0
-9.9999998 -2.7896777e-14 0
-9.9999998 -2.872394e-14 0
-9.9999998 9.9675417e-13 0
-9.9999998 4.081017e-10 0
-9.9999998 -4.8329556e-06 0
-9.9999998 -0.00070587007 0
-9.9999998 0.00070587007 0
-9.9999998 4.8329555e-06 0
-9.9999998 -4.0805705e-10 0
-9.9999998 -9.5827494e-13 0
-9.9999998 1.9322336e-14 0
-9.9999998 -2.4724667e-17 0
-9.9999998 -5.5590427e-19 0
-9.9999998 -2.0165595e-16 0
-9.9999998 4.7752669e-16 0
-9.9999998 -4.0509425e-16 0
-9.9999998 -6.143755e-18 0
-9.9999998 4.1276899e-16 0
-9.9999998 -2.2544466e-13 0
-9.9999998 -6.7621007e-14 0
-9.9999998 2.2428708e-13 0
-9.9999998 -2.1405766e-12 0
-9.9999998 2.7381831e-12 0
-9.9999998 3.0976212e-12 0
-9.9999998 3.0976462e-12 0
-9.9999998 3.0980243e-12 0
-9.9999998 3.097183e-12 0
-9.9999998 4.0751173e-12 0
-9.9999998 4.1117392e-10 0
-9.9999998 -4.8329525e-06 0
-9.9999998 -0.00070587007 0
-9.9999998 0.00070587007 0
-9.9999998 4.8329781e-06 0
-9.9999998 -4.0497888e-10 0
-9.9999998 2.1200284e-12 0
-9.9999998 5.2450955e-12 0
-9.9999998 3.1772966e-13 0
-9.9999998 1.9274918e-14 0
-9.9999998 1.9060162e-14 0
-9.9999998 1.9737066e-14 0
-9.9999998 1.8855006e-14 0
-9.9999998 1.7335989e-13 0
-9.9999998 -2.1372059e-12 0
-9.9999998 2.6571263e-12 0
-9.9999997 3.1195943e-12 0
-9.9999998 2.9851403e-12 0
-9.9999998 -3.16931e-11 0
-9.9999992 4.870858e-07 0
-9.9999992 4.8705155e-07 0
-9.9999992 4.8705141e-07 0
-9.9999992 4.8705146e-07 0
-9.9999992 4.8705146e-07 0
-9.9999992 4.8705239e-07 0
-9.9999992 4.8745948e-07 0
-9.9999992 -4.3459042e-06 0
-9.9999992 -0.00070538302 0
-9.9999919 0.00070587004 0
-9.9999992 5.3200649e-06 0
-9.9999992 4.866435e-07 0
-9.9999992 4.8705057e-07 0
-9.9999992 4.8708601e-07 0
-9.9999996 -3.1483846e-11 0
-9.9999996 2.9851835e-12 0
-9.9999996 3.1193933e-12 0
-9.9999996 3.1200759e-12 0
-9.9999996 3.1191904e-12 0
-9.9999996 2.9852972e-12 0
-9.9999996 -3.4622569e-11 0
-9.9999991 4.8708874e-07 0
-9.9999991 4.8705515e-07 0
-9.9999991 4.8705477e-07 0
-9.9999991 4.8705539e-07 0
-9.999999 4.8706031e-07 0
-9.999999 4.87058e-07 0
-9.999999 4.87058e-07 0
-9.999999 4.8705804e-07 0
-9.999999 4.8705804e-07 0
-9.999999 4.8705902e-07 0
-9.999999 4.8746612e-07 0
-9.999999 -4.3458975e-06 0
-9.999999 -0.00070538301 0
-9.9999917 0.00070587004 0
-9.999999 5.3200759e-06 0
-9.999999 4.8665013e-07 0
-9.999999 4.8705707e-07 0
-9.999999 4.8705774e-07 0
-9.999999 4.8705282e-07 0
-9.999999 4.8705496e-07 0
-9.999999 4.8705496e-07 0
-9.999999 4.8705497e-07 0
-9.999999 4.8705496e-07 0
-9.999999 4.8705466e-07 0
-9.999999 4.8701581e-07 0
-9.9999988 4.8709275e-07 0
-9.9999988 4.8705113e-07 0
-9.9999988 4.8705098e-07 0
-9.9999988 4.8705119e-07 0
-9.9999988 4.8705121e-07 0
-9.9999988 4.87051e-07 0
-9.9999988 4.8704589e-07 0
-9.9999988 4.8705656e-07 0
-9.9999988 4.870575e-07 0
-9.9999988 4.8705848e-07 0
-9.9999988 4.8746574e-07 0
-9.9999988 -4.3458979e-06 0
-9.9999988 -0.00070538301 0
-9.9999914 0.00070586999 0
-9.9999987 5.320153e-06 0
-9.9999987 4.8664989e-07 0
-9.9999987 4.870567e-07 0
-9.9999987 4.8705768e-07 0
-9.9999987 4.8705764e-07 0
-9.9999987 4.8705764e-07 0
-9.9999987 4.8705766e-07 0
-9.9999987 4.8705766e-07 0
-9.9999987 4.8705768e-07 0
-9.9999987 4.8705768e-07 0
-9.9999987 4.8705871e-07 0
-9.9999987 4.8706434e-07 0
-9.9999987 4.870612e-07 0
-9.9999987 4.8706121e-07 0
-9.9999987 4.8706121e-07 0
-9.9999987 4.8706121e-07 0
-9.9999987 4.8706092e-07 0
-9.9999987 4.8698629e-07 0
-9.9999971 1.9482861e-06 0
-9.9999971 1.9482115e-06 0
-9.9999971 1.9482122e-06 0
-9.9999971 1.9486193e-06 0
-9.9999971 -2.8847442e-06 0
-9.9999971 -0.00070392184 0
-9.9999679 0.00070586992 0
-9.9999971 6.7813829e-06 0
-9.9999971 1.9478054e-06 0
-9.9999971 1.948212e-06 0
-9.9999971 1.9482128e-06 0
-9.9999971 1.9482128e-06 0
-9.999997 1.9482129e-06 0
-9.999997 1.9482127e-06 0
-9.999997 1.9482106e-06 0
-9.999997 1.9482156e-06 0
-9.999997 1.9482159e-06 0
-9.999997 1.9482159e-06 0
-9.999997 1.9482159e-06 0
-9.999997 1.9482152e-06 0
-9.999997 1.9482167e-06 0
-9.999997 1.9482168e-06 0
-9.999997 1.9482168e-06 0
-9.999997 1.9482168e-06 0
-9.999997 1.9482179e-06 0
-9.999997 1.9482285e-06 0
-9.999997 1.9482236e-06 0
-9.999997 1.9482247e-06 0
-9.999997 1.9486316e-06 0
-9.999997 -2.8847319e-06 0
-9.999997 -0.00070392183 0
-9.9999727 0.00070587093 0
-10.000002 6.7815033e-06 0
-10.000001 2.4348827e-06 0
-10.000001 2.4352775e-06 0
-10.000001 2.4352791e-06 0
-10.000001 2.4352791e-06 0
-10.000001 2.4352791e-06 0
-10.000001 2.4352836e-06 0
-10.000001 2.4352399e-06 0
-10.000001 2.9223544e-06 0
-10.000001 2.9223212e-06 0
-10.000001 2.922321e-06 0
-10.000001 2.9223208e-06 0
-10.000001 2.9223102e-06 0
-10 3.4093844e-06 0
-10 3.4093737e-06 0
-10 3.4093737e-06 0
-10 3.4093737e-06 0
-10 3.4093737e-06 0
-10 3.4093737e-06 0
-10 3.4093787e-06 0
-10 3.409324e-06 0
-10 3.4097281e-06 0
-10 -1.4237057e-06 0
-10 -0.00070246163 0
-10.000611 0.00066690383 0
-10.000701 8.24557e-06 0
-10.000701 3.4090045e-06 0
-10.000701 3.8965412e-06 0
-10.000701 3.8964955e-06 0
-10.000701 3.8964953e-06 0
-10.000701 3.8964954e-06 0
-10.000701 3.8965687e-06 0
-10.000702 2.9223097e-06 0
-10.000702 2.9223873e-06 0
-10.000702 2.9223855e-06 0
-10.000702 2.9223855e-06 0
-10.000702 2.9223855e-06 0
-10.000702 2.9223857e-06 0
-10.000702 2.9223872e-06 0
-10.000702 2.9223865e-06 0
-10.000702 2.9223865e-06 0
-10.000702 2.9223865e-06 0
-10.000702 2.9223865e-06 0
-10.000702 2.9223869e-06 0
-10.000702 2.9224607e-06 0
-10.000702 2.4352655e-06 0
-10.000694 2.4356554e-06 0
-10.000694 -1.9134815e-06 0
-10.000655 -0.00066398171 0
10.001149 0.00069647428 0
10.001358 1.1966594e-05 0
10.001362 1.7309863e-06 0
10.001362 1.7658676e-06 0
10.001362 1.7658656e-06 0
10.001362 1.7658656e-06 0
10.001362 1.7658656e-06 0
10.001362 1.7658656e-06 0
10.001362 1.7658656e-06 0
10.001362 1.7658655e-06 0
10.001362 1.7658665e-06 0
10.001362 1.765855e-06 0
10.001362 1.7659012e-06 0
10.001362 1.7658547e-06 0
10.001362 1.7658084e-06 0
10.001362 1.8451506e-06 0
10.001362 1.8451475e-06 0
10.001362 1.8451475e-06 0
10.001362 1.8451475e-06 0
10.001362 1.8451475e-06 0
10.001362 1.8451475e-06 0
10.001362 1.8451382e-06 0
10.001362 1.8455975e-06 0
10.001361 -3.7733125e-06 0
10.001369 -0.0007032705 0
9.9998882 0.00070409086 0
9.9999555 1.1775733e-05 0
9.9999472 7.4284813e-06 0
9.9999472 7.4288314e-06 0
9.9999472 7.428832e-06 0
9.9999472 7.428832e-06 0
9.9999472 7.428832e-06 0
9.9999472 7.428832e-06 0
9.9999472 7.4288337e-06 0
9.9999472 7.42883e-06 0
9.9999472 7.4288285e-06 0
9.9999478 6.9417381e-06 0
9.9999394 6.9418269e-06 0
9.9999477 6.9417376e-06 0
9.999939 6.9417909e-06 0
9.999939 6.9417916e-06 0
9.999939 6.9417913e-06 0
9.999939 6.9417913e-06 0
9.999939 6.9417913e-06 0
9.999939 6.9417923e-06 0
9.9999388 6.9417803e-06 0
9.9999388 6.9417889e-06 0
9.9999389 6.9421951e-06 0
9.9999389 2.1086696e-06 0
9.9999382 -0.00069903719 0
9.9999281 0.00070538264 0
9.9999865 9.2168988e-06 0
9.9999865 4.3831498e-06 0
9.9999865 4.3835369e-06 0
9.9999865 4.3835388e-06 0
9.9999865 4.3835242e-06 0
9.9999865 4.3835242e-06 0
9.9999865 4.3835243e-06 0
9.9999865 4.3835504e-06 0
9.999987 3.8964473e-06 0
9.999987 3.8964472e-06 0
9.9999787 4.3835565e-06 0
9.9999787 4.3834881e-06 0
9.9999787 4.383518e-06 0
9.9999787 4.3835608e-06 0
9.9999786 4.3835169e-06 0
9.9999786 4.383517e-06 0
9.9999786 4.383517e-06 0
9.9999786 4.3835171e-06 0
9.9999786 4.3835323e-06 0
9.9999792 3.8964331e-06 0
9.9999704 4.3835425e-06 0
9.9999704 4.8709933e-06 0
9.9999704 3.7614656e-08 0
9.9999704 -0.00070099953 0
9.9999193 0.00070440844 0
9.9999704 9.7040345e-06 0
9.9999704 4.8701382e-06 0
9.9999704 4.8705369e-06 0
9.9999782 4.8705504e-06 0
9.9999782 4.8705444e-06 0