# vtk DataFile Version 4.0
hesp visualization file
ASCII
DATASET UNSTRUCTURED_GRID
POINTS 1250 double
27.967537 -6.5165235 4
27.884686 -4.9530929 4
31.042766 -6.2528558 4
26.668957 2.2067592 4
31.850922 6.2192909 4
33.625662 3.6532507 4
33.331813 -4.3102796 4
36.341152 10.484853 4
30.347619 13.314803 4
29.426683 8.3538566 4
34.118468 12.214631 4
32.914936 11.537772 4
32.540751 11.675132 4
31.391202 14.043119 4
29.57353 20.959398 4
34.924465 13.254826 4
27.21921 25.967189 4
29.03291 18.911568 4
30.315216 21.593278 4
30.87226 31.065891 4
29.376241 26.445613 4
31.441601 27.941221 4
32.430839 21.68348 4
30.790388 48.258848 4
30.955974 39.089796 4
43.241697 -11.672342 4
26.740798 -4.4823264 4
25.185511 -9.0884169 4
30.526606 1.6625176 4
27.809635 7.3963674 4
27.418789 2.8711956 4
25.73117 -1.0626895 4
28.259324 -2.2627467 4
28.654202 1.587694 4
28.532831 3.2587409 4
27.078441 9.6506012 4
35.069216 7.7602155 4
30.28951 15.442039 4
29.03053 10.467468 4
32.766562 11.79847 4
28.136391 23.308422 4
28.576463 13.208289 4
26.185708 18.113195 4
33.978576 18.887158 4
32.109489 24.940743 4
29.403444 32.182707 4
30.148621 21.097183 4
30.821171 31.881869 4
30.523075 42.797618 4
30.290549 33.386792 4
31.828513 -6.2194097 4
31.559632 -14.778238 4
30.207366 -3.5377585 4
34.294606 2.2656578 4
38.977164 -8.1894683 4
36.270585 2.3158066 4
30.97008 -4.8055433 4
35.224507 10.627794 4
33.207681 9.6381922 4
33.870494 9.4141644 4
30.31595 7.0454801 4
28.56467 10.232254 4
31.238282 10.790109 4
33.34144 7.4273553 4
31.903074 12.609566 4
30.866783 12.679809 4
30.79057 15.989477 4
36.797335 21.178894 4
31.258502 16.513334 4
28.22433 31.074842 4
27.622631 21.12507 4
36.635123 23.483231 4
30.577194 19.665696 4
34.090378 32.413016 4
32.174994 26.797169 4
38.423809 -18.263029 4
29.683185 -4.1132144 4
31.2143 8.6717899 4
35.332967 -8.883875 4
26.616302 5.6064631 4
28.756072 7.8650883 4
26.431912 8.8722142 4
32.772639 9.4986045 4
29.285403 11.271818 4
33.071468 8.629473 4
28.803884 14.574873 4
32.110839 7.6760605 4
30.064605 16.155248 4
33.572704 17.28451 4
30.764464 9.3091636 4
32.531829 16.765169 4
28.493239 14.12447 4
33.899723 12.805912 4
32.091339 19.364479 4
29.120013 22.754075 4
36.789547 11.099486 4
29.376401 23.965538 4
29.094607 27.380962 4
29.750853 29.760463 4
32.655666 47.23202 4
35.875738 -13.008833 4
26.868649 -13.400642 4
34.797167 1.3743236 4
35.071243 6.6549635 4
23.603524 -5.5901816 4
26.724565 6.4583459 4
31.218468 4.0202904 4
28.398618 3.0171593 4
36.17803 6.8261894 4
35.687074 4.1315847 4
31.589546 7.1597563 4
34.350863 4.165424 4
34.424761 12.043826 4
31.573682 9.255386 4
34.968757 15.821179 4
37.334558 18.309383 4
33.282399 14.0355 4
30.866221 16.254748 4
31.998825 18.55343 4
36.29734 21.98192 4
31.648254 27.430291 4
34.574755 27.976125 4
36.236644 25.46263 4
31.621874 31.014361 4
32.050894 28.784488 4
27.895973 -10.180038 4
27.169456 -12.740617 4
37.83609 9.1949898 4
34.24401 5.4676283 4
31.911517 2.2600746 4
36.62624 9.5079749 4
32.746383 5.9855535 4
36.088867 5.8139959 4
34.621471 13.018875 4
39.347449 17.511467 4
34.85771 15.169549 4
35.094912 16.04941 4
32.272455 21.218658 4
39.764034 15.991267 4
31.329212 12.950945 4
33.523859 24.279219 4
32.03467 22.839537 4
34.939226 23.672377 4
35.13454 27.533037 4
36.155404 31.343102 4
32.242608 31.985458 4
32.448207 19.916282 4
29.137071 29.396908 4
36.302024 37.785008 4
28.661807 32.488247 4
30.729214 3.742453 4
24.879728 -15.816093 4
34.488794 -0.85554041 4
30.612697 -3.7938929 4
30.846615 -1.4873276 4
29.870852 5.6804012 4
30.13785 6.3947835 4
33.432954 8.699021 4
31.715491 10.65696 4
28.32579 10.469797 4
38.05218 12.23184 4
30.706925 13.883779 4
30.981776 11.2396 4
32.773907 16.488577 4
28.154063 18.475435 4
27.642998 15.605573 4
30.331314 19.940805 4
28.765133 23.059362 4
34.619366 28.70538 4
32.458213 23.274684 4
31.410345 26.217602 4
32.469831 27.160511 4
31.256485 32.258038 4
33.680467 26.902862 4
26.188546 36.766269 4
45.390226 -7.5290883 4
31.68584 -2.153274 4
32.842163 -8.2583718 4
32.302055 5.0803421 4
35.099132 8.9621314 4
27.459485 -8.8082299 4
35.282257 8.6497511 4
25.241605 6.3628762 4
35.144052 4.5993114 4
35.812328 5.9961491 4
33.272321 11.642407 4
29.316424 13.899379 4
35.03672 22.160776 4
34.17952 10.390735 4
35.542535 15.385647 4
33.230389 19.081666 4
36.229337 15.878389 4
31.028222 23.288469 4
36.242451 21.077438 4
29.824434 22.551812 4
31.024482 18.819101 4
27.574401 34.280182 4
34.553996 32.273326 4
32.854907 29.79461 4
43.072669 39.332184 4
30.680048 4.8638454 4
33.154481 3.1157768 4
32.420156 0.27898476 4
33.957863 -10.921987 4
31.770187 -0.93515286 4
30.176745 4.1012211 4
34.510906 3.0941919 4
35.807911 8.6533164 4
34.615119 11.677056 4
35.653671 10.530318 4
31.343848 17.117303 4
32.496444 19.493439 4
30.530539 15.699608 4
29.53371 14.299322 4
36.622749 23.014122 4
36.985561 17.710151 4
31.398826 12.485089 4
32.575594 8.701793 4
30.854623 14.659892 4
35.557131 19.391342 4
37.645791 25.357685 4
37.223732 29.179743 4
32.700974 21.967251 4
36.992297 32.767694 4
33.745795 30.393992 4
32.996016 -2.1966229 4
24.768031 -5.8932203 4
36.367234 -3.3791143 4
34.160179 11.692941 4
29.916745 3.0958366 4
33.754715 6.7817914 4
35.629618 7.7150162 4
38.64666 9.0062533 4
35.480358 14.273394 4
39.51921 8.5596396 4
33.815808 12.416727 4
30.154446 12.202917 4
32.046664 17.666824 4
36.948461 11.983054 4
32.842788 18.136961 4
32.752128 19.127017 4
35.178327 20.30939 4
32.706777 27.213436 4
33.676173 21.298752 4
34.395475 26.048222 4
32.566764 24.137729 4
30.347051 25.812266 4
32.615762 30.15221 4
35.155308 32.266233 4
24.822562 34.015339 4
25.892222 -8.7809519 4
32.163345 -2.0967642 4
32.678313 -0.32917403 4
27.878173 -1.6315875 4
40.964981 4.9863524 4
34.178675 2.9698481 4
36.515637 8.651695 4
34.728341 2.4303774 4
35.943375 8.1647162 4
35.465786 12.015636 4
34.729246 17.15074 4
36.930138 15.097167 4
40.192283 11.154068 4
39.521349 9.8408863 4
32.425329 18.135499 4
32.077503 17.996836 4
36.156339 14.515866 4
28.916975 21.619268 4
34.422076 19.57065 4
35.715789 24.242028 4
35.923924 27.454143 4
31.44493 20.970836 4
33.964693 23.386762 4
29.481018 30.049221 4
29.384315 33.512784 4
38.194277 -13.052895 4
30.193288 -3.2117577 4
28.660587 3.4566085 4
37.343124 5.8779819 4
35.851367 6.6110481 4
39.542338 5.8150389 4
35.288084 5.6234662 4
30.789605 8.7547614 4
35.889301 11.550809 4
32.231958 10.178137 4
35.273579 14.936771 4
32.732407 13.67694 4
34.210772 18.740701 4
31.523995 14.370115 4
37.857536 21.288675 4
37.267977 21.683868 4
34.846975 18.704271 4
33.49395 22.21375 4
33.717757 24.095698 4
34.251495 21.854277 4
33.549586 25.543703 4
33.890109 24.665393 4
29.929361 32.134812 4
29.314478 39.427282 4
40.583391 38.712694 4
33.665244 -4.1389621 4
34.005905 1.3300336 4
32.317763 1.4468006 4
29.151809 5.2186192 4
32.650526 3.817192 4
34.98119 -1.5361184 4
37.2911 7.4341101 4
38.723618 10.998822 4
39.085886 9.4801623 4
32.202949 9.8970865 4
38.587071 8.2540154 4
33.523582 14.471136 4
33.663581 16.073266 4
31.729317 15.369646 4
33.170155 16.134713 4
50.168866 15.350453 4
35.230682 25.074023 4
34.393724 24.082288 4
34.263839 22.730462 4
40.522112 30.813988 4
35.657671 30.240915 4
34.916557 26.988266 4
36.24842 28.518109 4
33.563464 36.379555 4
33.345753 39.068569 4
34.726079 -7.8051751 4
33.87863 -0.92769658 4
35.517485 3.8387554 4
33.760684 4.1550333 4
30.790328 1.9951571 4
38.761169 5.9419438 4
34.137792 6.9475201 4
36.24451 7.7417105 4
34.464403 6.1958453 4
33.667421 6.3155886 4
38.743235 9.735827 4
36.322211 13.177614 4
30.034292 13.868075 4
37.245142 13.908114 4
39.594347 18.456827 4
36.67546 14.927968 4
38.348176 19.732383 4
36.752238 17.576227 4
35.681161 17.40972 4
36.716859 21.886116 4
37.293986 24.017445 4
33.490209 23.17122 4
33.849791 25.714968 4
38.676315 34.671838 4
33.94065 35.864446 4
37.330815 0.47076553 4
34.106797 -10.708681 4
34.695472 0.49330315 4
34.121051 1.8033648 4
34.356212 2.7658691 4
35.471403 5.3723671 4
34.705793 4.6234588 4
31.211112 6.7194829 4
36.370618 15.095769 4
36.959847 7.7406828 4
34.12786 16.3212 4
35.70225 12.460307 4
39.48584 15.864662 4
35.362074 17.01984 4
34.047475 17.768869 4
32.354762 18.933382 4
34.995303 17.489101 4
37.710562 21.0423 4
36.080432 23.622629 4
34.893782 26.570378 4
33.804398 26.295414 4
32.844648 29.486052 4
37.373236 21.033783 4
34.148073 34.075891 4
37.404793 32.015672 4
33.557689 -0.62027821 4
37.264905 -0.73412558 4
33.016775 2.2715967 4
31.090819 4.7951654 4
34.909961 4.1801634 4
38.446536 9.301631 4
36.361029 12.396452 4
37.43883 12.856804 4
36.206243 10.129892 4
38.450421 14.178943 4
36.42462 16.338582 4
37.645865 16.784099 4
34.976712 19.344151 4
39.093232 19.508703 4
34.039897 17.129539 4
39.098755 16.713433 4
36.923168 18.946668 4
35.653939 17.951608 4
38.826789 14.798885 4
37.90319 19.941062 4
37.169402 20.604341 4
37.763266 29.244963 4
38.256392 33.47004 4
32.508031 26.084085 4
30.15666 32.64742 4
38.431221 -0.61164467 4
36.309659 2.6758853 4
33.844831 -1.1989818 4
36.815306 3.7577211 4
34.667737 5.5644471 4
35.285713 7.4262186 4
40.708334 10.410043 4
36.399267 5.1520446 4
34.484043 7.6264623 4
36.343376 12.912806 4
32.759432 16.778313 4
36.630873 10.034848 4
35.872653 12.721315 4
37.387872 19.252592 4
37.577078 17.617816 4
36.981357 15.432394 4
35.001512 17.176533 4
35.646876 21.573641 4
37.602731 20.115489 4
34.628075 25.797778 4
34.956026 25.56001 4
35.271211 25.362846 4
36.309915 25.182288 4
30.614473 33.617273 4
34.200119 29.999916 4
35.333879 -0.5746879 4
37.916542 1.6839301 4
35.795031 3.5386465 4
36.893165 2.302187 4
38.469347 4.8411505 4
36.505583 6.5133196 4
37.514994 8.1738702 4
36.850662 10.448455 4
35.31114 10.070646 4
37.499486 13.893127 4
37.433672 15.712409 4
37.71224 14.988866 4
38.059982 13.832026 4
36.354777 17.981584 4
34.583869 17.3987 4
38.088979 23.352144 4
36.899674 19.889121 4
36.189451 20.501622 4
37.270631 22.255723 4
39.852904 21.58291 4
37.662335 24.332311 4
37.029803 23.474079 4
35.957436 28.392347 4
35.715587 24.754547 4
36.47332 31.578101 4
35.760023 -2.3257919 4
[...]
POINT_DATA 1250
SCALARS m double
LOOKUP_TABLE default
1
1
1
1
1
1
1
1
1
1
1
1
1
1
1
1
1
1
1
1
1
1
1
1
1
1
1
1
1
1
1
1
1
1
1
1
1
1
1
1
1
1
1
1
1
1
1
1
1
1
1
1
1
1
1
1
1
1
1
1
1
1
1
1
1
1
1
1
1
1
1
1
1
1
1
1
1
1
1
1
1
1
1
1
1
1
1
1
1
1
1
1
1
1
1
1
1
1
1
1
1
1
1
1
1
1
1
1
1
1
1
1
1
1
1
1
1
1
1
1
1
1
1
1
1
1
1
1
1
1
1
1
1
1
1
1
1
1
1
1
1
1
1
1
1
1
1
1
1
1
1
1
1
1
1
1
1
1
1
1
1
1
1
1
1
1
1
1
1
1
1
1
1
1
1
1
1
1
1
1
1
1
1
1
1
1
1
1
1
1
1
1
1
1
1
1
1
1
1
1
1
1
1
1
1
1
1
1
1
1
1
1
1
1
1
1
1
1
1
1
1
1
1
1
1
1
1
1
1
1
1
1
1
1
1
1
1
1
1
1
1
1
1
1
1
1
1
1
1
1
1
1
1
1
1
1
1
1
1
1
1
1
1
1
1
1
1
1
1
1
1
1
1
1
1
1
1
1
1
1
1
1
1
1
1
1
1
1
1
1
1
1
1
1
1
1
1
1
1
1
1
1
1
1
1
1
1
1
1
1
1
1
1
1
1
1
1
1
1
1
1
1
1
1
1
1
1
1
1
1
1
1
1
1
1
1
1
1
1
1
1
1
1
1
1
1
1
1
1
1
1
1
1
1
1
1
1
1
1
1
1
1
1
1
1
1
1
1
1
1
1
1
1
1
1
1
1
1
1
1
1
1
1
1
1
1
1
1
1
1
1
1
1
1
1
1
1
1
1
1
1
1
1
1
1
1
1
1
1
1
1
1
1
1
1
1
1
1
1
1
1
1
1
1
1
1
1
1
1
1
1
1
1
1
1
1
1
1
1
1
1
1
1
1
1
1
1
1
1
1
1
1
1
1
1
1
1
1
1
1
1
1
1
1
1
1
1
1
1
1
1
1
1
1
1
1
1
1
1
1
1
1
1
1
1
1
1
1
1
1
1
1
1
1
1
1
1
1
1
1
1
1
1
1
1
1
1
1
1
1
1
1
1
1
1
1
1
1
1
1
1
1
1
1
1
1
1
1
1
1
1
1
1
1
1
1
1
1
1
1
1
1
1
1
1
1
1
1
1
1
1
1
1
1
1
1
1
1
1
1
1
1
1
1
1
1
1
1
1
1
1
1
1
1
1
1
1
1
1
1
1
1
1
1
1
1
1
1
1
1
1
1
1
1
1
1
1
1
1
1
1
1
1
1
1
1
1
1
1
1
1
1
1
1
1
1
1
1
1
1
1
1
1
1
1
1
1
1
1
1
1
1
1
1
1
1
1
1
1
1
1
1
1
1
1
1
1
1
1
1
1
1
1
1
1
1
1
1
1
1
1
1
1
1
1
1
1
1
1
1
1
1
1
1
1
1
1
1
1
1
1
1
1
1
1
1
1
1
1
1
1
1
1
1
1
1
1
1
1
1
1
1
1
1
1
1
1
1
1
1
1
1
1
1
1
1
1
1
1
1
1
1
1
1
1
1
1
1
1
1
1
1
1
1
1
1
1
1
1
1
1
1
1
1
1
1
1
1
1
1
1
1
1
1
1
1
1
1
1
1
1
1
1
1
1
1
1
1
1
1
1
1
1
1
1
1
1
1
1
1
1
1
1
1
1
1
1
1
1
1
1
1
1
1
1
1
1
1
1
1
1
1
1
1
1
1
1
1
1
1
1
1
1
1
1
1
1
1
1
1
1
1
1
1
1
1
1
1
1
1
1
1
1
1
1
1
1
1
1
1
1
1
1
1
1
1
1
1
1
1
1
1
1
1
1
1
1
1
1
1
1
1
1
1
1
1
1
1
1
1
1
1
1
1
1
1
1
1
1
1
1
1
1
1
1
1
1
1
1
1
1
1
1
1
1
1
1
1
1
1
1
1
1
1
1
1
1
1
1
1
1
1
1
1
1
1
1
1
1
1
1
1
1
1
1
1
1
1
1
1
1
1
1
1
1
1
1
1
1
1
1
1
1
1
1
1
1
1
1
1
1
1
1
1
1
1
1
1
1
1
1
1
1
1
1
1
1
1
1
1
1
1
1
1
1
1
1
1
1
1
1
1
1
1
1
1
1
1
1
1
1
1
1
1
1
1
1
1
1
1
1
1
1
1
1
1
1
1
1
1
1
1
1
1
1
1
1
1
1
1
1
1
1
1
1
1
1
1
1
1
1
1
1
1
1
1
1
1
1
1
1
1
1
1
1
1
1
1
1
1
1
1
1
1
1
1
1
1
1
1
1
1
1
1
1
1
1
1
1
1
1
1
1
1
1
1
1
1
1
1
1
1
1
1
1
1
1
1
1
1
1
1
1
1
1
1
1
1
1
1
1
1
1
1
1
1
1
1
1
1
1
1
1
1
1
1
1
1
1
1
1
1
1
1
1
1
1
1
1
1
1
1
1
1
1
1
1
1
1
1
1
1
1
1
1
1
1
1
1
1
1
1
1
1
1
1
1
1
1
1
1
1
1
1
1
1
1
1
1
1
1
1
1
1
1
1
1
1
1
1
1
1
1
1
1
1
1
1
1
1
1
1
1
1
1
1
1
1
1
1
1
1
1
1
1
1
1
1
1
1
1
1
1
1
1
1
1
1
1
1
1
1
1
1
1
1
1
1
1
1
1
1
1
1
1
1
1
1
1
1
1
1
1
1
1
1
1
1
1
1
VECTORS v double
1.6616574 -8.8870256 0
3.6569596 -10.049342 0
-1.2511401 -16.34004 0
-5.7219959 -3.2513159 0
11.224625 7.2821748 0
-0.6960017 4.4640113 0
-2.1675774 -23.044829 0
-4.7936897 -4.2924603 0
-1.9473284 1.935675 0
-8.0164294 -4.2470636 0
-14.947174 6.0032512 0
20.232655 11.812521 0
7.7566183 -3.4597474 0
7.042297 -2.1218885 0
4.724347 6.6111676 0
5.747494 -8.136672 0
5.5027446 5.7080684 0
-8.338459 -7.8237314 0
-2.4359802 -6.8747343 0
-4.6724281 0.84342961 0
-10.298711 16.830166 0
-1.3643616 15.835531 0
11.091935 1.0329004 0
0.20851274 22.962116 0
1.7567895 11.109324 0
8.8399697 -9.0826405 0
-0.24348292 -9.6522005 0
-8.9073273 -14.324394 0
-0.16334989 -1.4543702 0
5.5067617 -4.0256096 0
-3.1735651 0.9291027 0
-7.6199836 -7.1685752 0
23.196714 -27.379631 0
1.0618496 -4.2554329 0
1.230083 -4.6602855 0
-13.128683 2.2434655 0
-3.4950147 -7.302992 0
11.969212 -11.633935 0
-3.7221046 -11.71652 0
3.3304581 -2.0808697 0
-5.7618131 6.1672205 0
2.005239 -1.1272137 0
-0.92561054 2.185222 0
-0.11601841 3.2146572 0
0.81242498 5.752347 0
0.31111175 -1.0384216 0
-16.545569 3.9842267 0
-4.1575732 -0.073344035 0
1.4688871 13.66397 0
-1.5353857 3.7432221 0
3.2904281 -9.9513134 0
3.1086719 -15.900931 0
1.7503267 -19.986227 0
6.6374394 0.11992821 0
10.75522 -12.551485 0
8.955449 -9.0787821 0
3.7259009 -12.727695 0
-7.8550436 -0.54933491 0
-4.1502622 -10.013924 0
10.584073 -5.4786648 0
1.5682918 -5.289352 0
-6.5088047 1.1503954 0
-3.6502204 -8.6905458 0
-1.2618978 -5.4592456 0
-5.5373516 3.3157583 0
-1.0965991 0.88159295 0
-6.8412748 -6.1791385 0
2.3368295 1.0376597 0
1.8131858 -2.4343707 0
5.9246368 4.8888983 0
-6.6323563 -2.4518004 0
1.3795974 15.206858 0
-6.0545924 10.983152 0
-3.4281128 7.7071273 0
7.5674452 -1.2992094 0
3.9466542 -13.879275 0
-3.3129089 -4.9436491 0
-2.6574102 4.6140519 0
5.1166544 -14.873724 0
2.806315 -1.916777 0
-8.2529617 -9.8679937 0
3.8482386 -2.1332318 0
3.4514955 -4.9768499 0
-0.58997865 -7.5611265 0
22.965663 -3.5604505 0
-9.7093937 1.3016367 0
-1.879737 2.5242157 0
-6.3956386 11.099922 0
6.150679 -9.9767502 0
3.4963581 -17.256613 0
-0.064037539 -12.63949 0
3.1695932 -4.7043931 0
4.6059956 -5.6720344 0
3.8879623 -0.48571974 0
10.38937 11.55792 0
4.6931 -6.9273615 0
-0.36020804 12.971174 0
5.4351283 2.7438485 0
-1.8675868 8.3962521 0
0.47110788 14.494982 0
3.3724338 -12.746329 0
-5.5568633 -14.75249 0
-1.6798699 -13.369173 0
1.9007702 -3.7781418 0
-8.20139 -8.5942896 0
0.57465824 -4.3501118 0
-1.2140165 -2.1673704 0
-9.1638759 -13.93358 0
1.6549185 -7.2877012 0
-1.7910866 3.111148 0
-1.834013 -0.48087801 0
-2.6986645 -11.204014 0
-3.4600035 -4.4708469 0
-5.9518452 -15.059636 0
-14.474839 0.49783953 0
-1.5382371 6.2181444 0
9.1368364 -8.6011833 0
3.5942776 -9.5492691 0
6.5285651 -0.89361323 0
-0.48800049 10.762052 0
-4.0199204 3.2027404 0
2.4587724 8.651192 0
-1.5985981 0.034574174 0
-2.5265267 9.4876039 0
10.123088 9.4041116 0
-2.3605971 -9.0026825 0
0.085375675 -22.49696 0
23.677284 -5.0119914 0
-5.6321851 -12.352472 0
1.5527634 0.053861981 0
-1.8463141 5.4209183 0
14.560218 3.2098183 0
2.0964862 -15.29242 0
-3.1187479 10.811405 0
11.641804 9.1551103 0
2.3553708 -0.92172617 0
-11.105936 10.370933 0
4.0420588 9.4339906 0
5.5328343 -2.5183798 0
13.831252 3.8486132 0
-4.1191857 5.0653894 0
-6.5023604 11.350947 0
2.052968 -6.4121535 0
-0.0023623391 10.196241 0
-6.7594927 5.9763699 0
6.9322415 7.1484036 0
0.23248902 9.9060394 0
-1.7591258 -4.1750946 0
2.7835536 9.300445 0
0.6022668 13.142438 0
-4.1049537 9.8956584 0
-7.1221573 -15.01762 0
-6.2554215 -14.134504 0
2.6947531 -11.705288 0
-1.0452911 -7.9119147 0
-4.6697362 3.1448815 0
2.2074954 8.3752079 0
3.1546051 -2.5707002 0
4.1063838 7.68111 0
6.5338498 -11.533989 0
6.378161 -1.5990831 0
-10.643941 1.9169135 0
-0.70158917 -1.4541586 0
-15.805588 -13.037421 0
-0.14744689 -1.7148655 0
-1.243762 -1.5697554 0
-7.8441627 0.44011699 0
-2.8563898 10.915721 0
-2.0689857 11.142666 0
-2.4264614 14.996439 0
5.08497 9.9098835 0
-10.054871 10.268927 0
6.5800562 17.485804 0
-2.7821919 20.16336 0
-2.2837137 10.291097 0
7.9152496 -6.5258364 0
3.8506499 -8.8352638 0
0.10045313 -13.988763 0
3.2097387 -13.372699 0
3.7898327 -5.1361029 0
-4.698512 -16.489767 0
-8.9034725 -0.96313118 0
-12.0476 -5.470608 0
-3.2506639 -1.5708746 0
-13.541126 -13.057838 0
3.6103682 -9.4367877 0
-10.192015 -3.8908428 0
-3.1112393 5.748562 0
3.4850326 -5.952527 0
0.68742325 -1.8273841 0
-11.454213 4.4611737 0
0.90983812 -1.783746 0
3.3741744 6.5745006 0
5.9179311 -2.5679334 0
-1.9338246 -0.57498135 0
-3.7663662 -13.76884 0
-7.839133 10.758822 0
4.3061319 9.9574448 0
-6.4653087 0.055328442 0
6.2745354 8.821453 0
1.0215044 -4.1217238 0
-2.3690336 -1.5638381 0
2.7562308 -6.6015385 0
1.7152368 -24.126478 0
7.9170965 -19.723773 0
-4.7364966 -0.92866961 0
12.093271 -0.2473837 0
10.403366 -1.5328751 0
-7.3821508 2.5420971 0
5.5724824 -9.9726846 0
1.4016451 -0.14126741 0
-1.889409 -3.4255342 0
0.1815712 7.4913498 0
-8.0784478 3.9603086 0
7.3359797 2.0853347 0
4.2730175 -2.378158 0
5.1967027 1.7596047 0
4.4276245 -13.28302 0
-5.1449351 -6.2070392 0
-0.80380741 0.9961764 0
9.4804424 5.2193018 0
3.9245199 3.6932263 0
-9.469344 -1.4452214 0
6.3028926 7.0164528 0
2.6414125 12.41688 0
-8.9951784 -12.211558 0
-9.975108 -15.061539 0
3.8619096 -18.093812 0
0.690092 4.6249858 0
-12.234125 -8.4804094 0
-2.5685386 -6.3477142 0
14.012338 -4.4502012 0
4.7301135 3.0319748 0
0.14528874 6.8236034 0
5.4828858 -14.53292 0
-2.3814598 -4.8432821 0
-16.701984 -6.7267862 0
-9.4195815 9.1619931 0
8.1847102 -4.3290691 0
5.3940932 7.1127508 0
-3.7980915 -3.6661963 0
-7.4968508 12.769348 0
2.3825479 9.6018262 0
2.9462871 -2.7858898 0
-4.5177894 6.6002195 0
7.063684 -9.1823443 0
-13.703016 -4.5663851 0
4.2806177 11.068491 0
5.6714842 7.7019166 0
-5.9266315 10.851681 0
-1.3904958 -9.9776925 0
-1.642093 -9.1982679 0
4.2717421 -5.674261 0
-10.73948 -1.5791588 0
4.9596747 0.013887331 0
-1.2801771 -5.9838963 0
20.902132 3.4326179 0
7.2113612 -10.781453 0
-6.3841209 -1.632186 0
-1.3889671 0.95486465 0
-1.5385305 13.994912 0
2.2890162 -4.1139009 0
-11.700068 -21.128164 0
-0.55173684 3.7973628 0
11.757275 6.8449768 0
5.1320429 -3.4329043 0
2.0989068 -0.97810338 0
-12.612527 4.4688796 0
3.1210981 -4.8550057 0
-7.3896259 8.1109344 0
-4.9752885 2.3679255 0
0.84899135 0.38790329 0
-5.0395391 1.0869789 0
5.0074253 6.083887 0
0.57525027 1.0207261 0
0.83133291 -12.772029 0
8.0106522 -2.098658 0
0.21342833 2.9196497 0
-2.4455156 5.3358118 0
5.2088511 4.4681413 0
-11.147902 -1.7559504 0
-1.8601097 -3.4427684 0
-6.6643542 -4.7281858 0
-5.8019511 5.2018532 0
5.1343736 -10.477639 0
3.0618974 7.2510886 0
1.4565294 2.7988635 0
-7.3459334 2.9619792 0
4.4202987 5.3592743 0
3.3943514 3.4455314 0
7.515188 4.1176428 0
6.6283071 -8.1897565 0
0.092197244 4.4147002 0
13.847411 14.318869 0
3.1022088 16.433912 0
-5.315081 1.238286 0
-10.038038 1.047188 0
-0.76091477 0.25696643 0
-7.4081107 21.981867 0
3.3742083 9.8830455 0
4.3469721 -8.0476924 0
-2.9127226 -10.563327 0
-9.7138775 -1.9295055 0
-5.6503911 -1.4066166 0
-11.437516 -6.661801 0
-6.2812837 -6.3257664 0
4.1394301 -4.7747591 0
-1.9294521 2.5993045 0
-1.033709 -4.3137606 0
6.4254946 -3.4899251 0
10.163929 -15.748072 0
0.21221772 12.491229 0
-12.840152 1.557722 0
-4.4696042 2.3420599 0
-5.0939987 0.14201143 0
11.979384 -7.2830737 0
-1.0550745 4.0189794 0
-3.3131568 4.7144256 0
8.3111637 2.3650501 0
15.697059 5.9561057 0
-0.55281181 5.072821 0
-12.041557 -6.3685768 0
-6.381776 2.0747275 0
-4.5744078 9.5135642 0
4.6969963 19.014988 0
0.3432587 -14.635311 0
8.6431573 -15.250905 0
-13.633228 6.9286371 0
0.90624777 -7.2614396 0
-2.0884568 4.3791545 0
-1.1603361 -6.5056114 0
1.2060962 8.7848901 0
-4.6171823 -8.9788803 0
2.4241624 4.9004227 0
-3.6849161 -8.785442 0
6.0329787 -4.7206596 0
6.7503053 6.9035345 0
-14.291005 -9.8049546 0
-7.7909533 -2.981892 0
7.2778371 -1.7999373 0
-6.9810072 21.551155 0
-10.591844 1.8191609 0
-7.1410487 -7.9663929 0
-6.3759222 -5.1960443 0
3.7828994 -6.6609385 0
9.611118 -2.6291996 0
-5.9043427 -1.9207222 0
-2.8549477 5.8891951 0
0.9247787 11.821476 0
-3.0499766 14.137036 0
1.1050681 -13.940687 0
1.2274712 -17.229179 0
-15.405417 -9.8523441 0
1.7534772 -9.5644285 0
-2.5116447 -4.9086766 0
-7.5832555 -8.8843209 0
-1.8318007 1.1652623 0
-5.3139142 -9.127829 0
-9.0725875 5.7308319 0
3.915762 -0.4817553 0
-1.1233252 -0.52982088 0
1.9466327 -3.2328625 0
0.82943025 -2.2506538 0
0.36605855 5.1410072 0
-4.0240126 -8.5954363 0
-7.9164289 -3.2036704 0
-11.839227 -9.4299816 0
-5.4193621 -4.7585839 0
2.1028987 9.2127216 0
-3.2624775 7.5298802 0
-3.1877722 -6.0570345 0
5.4091823 -2.8381445 0
-1.4438629 -8.7183673 0
-4.0322947 9.2131415 0
-1.2697769 11.299109 0
-7.0910004 -8.8081435 0
4.6827543 -0.88246257 0
-3.2034283 6.1158719 0
-8.9564518 -6.4536444 0
-7.3770263 -10.745875 0
7.7473588 0.22987167 0
16.280861 10.022574 0
-6.6703292 -3.4511747 0
-9.4187282 4.1638316 0
-7.9981031 -12.558614 0
8.1163078 0.61102345 0
0.60268347 -0.25767376 0
-5.7959697 1.9984991 0
4.4965354 -0.84703953 0
-15.637933 -5.8285503 0
-13.673405 -8.3914162 0
1.2283018 7.9591856 0
-6.3649017 -1.9971742 0
-1.8561037 -1.6486778 0
-15.891374 11.490667 0
0.85420211 1.5267846 0
-1.0755855 4.1906124 0
-0.28270643 12.871963 0
0.74032596 -8.0361546 0
0.55395338 12.232923 0
8.0609839 -6.6455581 0
-4.1376263 5.2309081 0
1.2577313 0.035469217 0
-5.153808 -3.2932959 0
-3.806605 0.24975412 0
-14.234845 -4.8394497 0
1.5947989 -1.3679876 0
1.0579544 -6.6141843 0
-2.0468193 -5.8061073 0
-4.3442502 4.7508441 0
10.253033 8.9085474 0
6.7426746 -17.266428 0
6.9583005 -1.2341857 0
15.422897 15.380086 0
0.81020256 3.2721329 0
4.8462195 8.281526 0
-2.2545504 -1.9478326 0
0.25278156 8.0443892 0
-3.0743346 -5.305915 0
-5.5186482 18.187018 0
-4.6832131 3.9378269 0
1.7880632 14.27506 0
-1.5699713 -6.2989908 0
-9.5080308 10.576345 0
7.6466746 2.0018599 0
-13.389256 -11.180525 0
1.8142891 2.3851225 0
-2.8283928 4.5253339 0
3.1947734 -8.1106437 0
3.7829203 -6.2546312 0
-1.1580885 6.441076 0
-0.97298024 7.5796506 0
-4.1084301 2.6275024 0
-8.9344127 -10.157066 0
-2.4003691 2.4548114 0
12.027407 0.12003695 0
-1.0366381 -2.097282 0
-11.099302 -8.221709 0
-9.154064 -0.8363894 0
-0.85187492 -9.7416055 0
-4.6881771 3.4946329 0
-0.094081695 1.028112 0
-7.450538 -0.57534952 0
0.28512392 0.28196461 0
-5.9762673 -10.056216 0
1.1540894 2.1974005 0
-4.2416949 5.8475024 0
2.408015 12.014709 0
-16.263727 6.8093841 0
-0.40989481 10.026491 0
-5.7567148 -8.9728736 0
-3.5069078 -2.0413039 0
-0.54092438 -4.9638138 0
0.37986127 -0.62483055 0
-4.1296317 3.3038987 0
-0.83057291 3.129243 0
0.073898667 -7.7081603 0
2.4339282 -4.3052111 0
-5.9399648 1.1213242 0
2.921322 -0.10278417 0
-4.5997359 3.1540617 0
11.640248 9.872208 0
6.7397239 -2.8319927 0
5.8349149 5.3411921 0
6.4090435 0.049404743 0
-3.9675813 -2.2635211 0
2.276022 -1.3155996 0
0.65561565 6.5806391 0
-6.6112324 0.10416999 0
9.0369668 3.3447873 0
-8.3926045 0.35474583 0
0.69085331 -5.7889176 0
-6.1187384 -2.1590352 0
-4.108132 1.2510452 0
-1.3097737 10.891586 0
5.3742126 -11.85319 0
1.7987204 -8.1201151 0
-0.33795119 2.0154469 0
1.9481519 -3.2645276 0
-6.477939 2.2215836 0
0.67641394 -12.996072 0
-8.912856 1.4621611 0
10.577582 6.5260987 0
-2.586478 7.3847209 0
1.2702925 -16.997471 0
-2.6126618 2.0438748 0
-3.4064919 -1.4769598 0
-10.587693 14.894249 0
-2.5769859 -2.5319277 0
2.1460849 0.071698654 0
1.9719143 -0.77831425 0
-8.6650569 -9.2757495 0
3.2130992 -9.7914359 0
-3.0529446 4.0478261 0
-8.855775 -0.082800331 0
-8.7400125 4.0880035 0
-3.7047119 -4.0496266 0
-0.82777389 2.5950568 0
-4.4621326 3.8391464 0
-2.2416514 9.68459 0
-1.9570973 -6.6470833 0
1.4599784 4.4376559 0
-5.4747249 -7.7149191 0
-3.5142204 4.1428036 0
4.0406296 -0.75417322 0
-5.0504184 0.426794 0
-4.373762 2.1852368 0
-3.7894331 -4.1781352 0
2.9626956 -5.1516075 0
3.9578455 5.5105608 0
8.6873016 -9.8329808 0
3.0069162 3.2830955 0
-3.0860895 11.220971 0
4.3855308 26.039185 0
0.0059968508 6.2701392 0
-5.1353363 6.4371447 0
4.8959025 3.2258714 0
-10.709174 3.5627039 0
-4.3113453 4.4371481 0
4.5424637 3.868073 0
-8.2740574 10.965742 0
-0.21499737 -5.3752094 0
-5.8539902 0.45674551 0
-3.9488815 10.547536 0
-2.2569425 6.5404334 0
-8.6924342 2.3360788 0
-10.051083 0.11542723 0
-9.9889584 0.034293738 0
-9.4025555 0.75400347 0
2.761308 1.544765 0
-8.9484594 2.7440409 0
-2.9968038 -6.5614648 0
-8.9866169 -3.6191325 0
-5.425302 -0.70527873 0
-10.061241 0.66140918 0
-3.0089957 1.3224563 0
-1.4064055 6.0368804 0
-2.6693703 1.7037979 0
9.4058536 5.0273491 0
-13.619502 1.7923855 0
-0.24894819 -2.2802086 0
9.3724188 -11.573513 0
4.1004865 10.345186 0
-7.4448058 -5.8192694 0
-15.780482 7.781845 0
-9.869721 -0.1074634 0
-12.026052 1.1901432 0
3.0643792 3.5007784 0
-12.868064 3.4391154 0
-9.7426928 1.1456702 0
-6.6910316 -8.5798568 0
-10.00356 0.00079172126 0
5.4024212 -11.106253 0
-10.048747 0.15291526 0
-12.968918 -4.7228256 0
-6.5175798 -1.8014559 0
-6.5396119 1.2410604 0
-5.8098259 5.3704191 0
7.852331 -8.5409383 0
-12.454293 6.2830686 0
-11.774631 4.1414681 0
-3.192756 10.181001 0
-1.1680049 2.3796638 0
5.4986266 5.0173975 0
-7.019357 7.4514841 0
-7.5152161 -0.76959046 0
4.8800128 8.549789 0
-6.0887465 7.3299948 0
7.8328327 -3.9818642 0
6.1679979 13.281048 0
-10.391857 -0.23238059 0
6.6010265 14.203764 0
-9.968689 0.043923358 0
-9.9821864 0.010342483 0
-10.010366 -0.057449022 0
-10.000303 0.016142595 0
-10.002928 0.0047569355 0
-10.005171 -0.0056647584 0
-9.9988204 0.065359326 0
6.5886567 0.032645271 0
8.4235939 -11.867779 0
-10.021155 0.002968137 0
2.2950331 4.5349682 0
-2.3358856 12.085808 0
4.0559758 1.7117523 0
-9.5224603 -0.62810404 0
13.280752 4.7722642 0
-8.3147943 -5.3467275 0
-9.0787314 3.8120539 0
13.922092 -9.6832506 0
3.0368465 8.4868532 0
-3.4460544 4.7437894 0
-6.9452122 4.4846755 0
-10.013032 0.10980525 0
-13.39564 0.916388 0
-9.9133125 -0.16146254 0
-10.004198 0.0060012353 0
-4.6093412 3.6996046 0
-10.236924 -1.2489728 0
-10.000244 -0.018735513 0
-10.014069 0.0148259 0
-10.015642 0.0030073813 0
-10.253207 -13.540308 0
-9.7519535 -0.0035254121 0
-10.020856 -0.017493306 0
-10.073409 0.12361056 0
-12.356781 -2.4114331 0
-9.8764319 -1.4931202 0
-10.042163 -0.060706674 0
-5.6396603 -14.508684 0
-1.5332992 -4.6090703 0
11.883039 -8.3387461 0
6.1828364 -0.078016464 0
2.287871 -2.8119268 0
-10.077339 -0.43925659 0
-2.2153634 -3.1132665 0
-9.9953759 -0.051804164 0
-6.6296119 -4.8850465 0
-0.75531547 0.26308322 0
-12.297279 3.9375314 0
-9.5305511 -0.59260605 0
-10.00589 -0.015564796 0
-10.032475 0.027926234 0
-3.3356469 -8.1373523 0
-10.006117 -0.029854158 0
9.3664052 -3.8409628 0
10.550171 1.4635637 0
-4.6246992 -21.125514 0
6.6460946 -11.295114 0
1.0790931 -6.3680817 0
4.9921037 -5.1936721 0
0.36675251 2.7429789 0
-1.7839657 -4.7367784 0
11.149553 9.1814686 0
-7.2722404 -3.4684308 0
8.0104456 -2.9832914 0
-10.225858 -0.59531377 0
-1.5598774 0.32016997 0
-12.355212 3.1553385 0
4.0794311 3.7569494 0
-1.4231236 5.4240538 0
18.388961 8.6071622 0
14.969869 0.20153373 0
-6.144 14.92844 0
-1.4271465 5.4356361 0
-10.844671 10.927487 0
3.3208448 8.3933427 0
619808.48 -383949.33 0
-2.6282259 22.954801 0
-4.4983162 10.081734 0
-1.298015 -13.925325 0
-1.6392882 -0.26893597 0
3.0800426 3.394131 0
0.69435354 -25.569263 0
-4.3297324 -1.1531113 0
-5.4093773 -13.434374 0
7.4981318 -3.4693976 0
4.0255618 -3.7956414 0
15.796608 -0.21036468 0
-22.182656 -10.779339 0
1.8494361 4.4313265 0
-4.7178556 -8.4705587 0
4.2544515 -1.114101 0
-4.8341371 -8.5257439 0
9.0718244 9.6293062 0
0.43961551 3.6935837 0
-3.417405 1.5731644 0
1.2870439 1.3076974 0
9.5188264 -3.3622826 0
-7.5291613 12.43862 0
-3.1901122 11.870263 0
-7.021807 4.4031676 0
1.8248728 3.6189761 0
-7.0009822 1.5349562 0
-0.1199663 9.3396253 0
8.2354319 -6.0208514 0
-1.2614914 -7.8300031 0
2.27981 -7.3518844 0
1.1225984 -10.735287 0
7.4868295 -2.7780008 0
-0.87640471 5.986555 0
8.0681127 -9.321053 0
6.4695102 -12.266439 0
3.1512701 -2.0237206 0
-1.9783645 -2.0085644 0
17.450492 -2.640627 0
5.7257408 9.0000649 0
-0.01994037 3.269602 0
7.6255208 -0.87679529 0
11.705094 0.39672643 0
5.8735322 7.4380499 0
9.3190658 -1.2158449 0
2.972315 9.5253449 0
10.87368 -9.147581 0
0.51048565 -2.8199293 0
5.9745776 21.063567 0
-2.2974331 11.530734 0
-0.56100049 9.8624187 0
-6.5884536 10.494721 0
-2.5798629 -0.72770095 0
-6.5485803 -6.7367896 0
-1.9603413 -10.561266 0
-5.9451658 -8.0465127 0
2.521912 3.9310462 0
-5.7262079 4.356772 0
-13.879154 -10.211847 0
13.892478 6.7941718 0
3.3084552 -14.386458 0
-2.9320826 -4.6730144 0
-0.65383779 -5.5353394 0
3.7965232 4.7763386 0
7.8297857 -9.521656 0
-7.981125 1.4187685 0
6.9691387 7.2895968 0
4.586639 -3.4218319 0
-1.8174575 0.60479627 0
-18.794842 -15.254876 0
5.8549779 -7.9227614 0
12.727562 -4.7281327 0
2.8865802 16.423865 0
-0.80721375 -3.1606969 0
-2.0882337 2.9616422 0
7.4476625 12.668813 0
-1.5389754 -12.662401 0
7.0375629 8.2927663 0
8.6596431 -8.7213834 0
-0.93553607 -19.432722 0
-8.2175025 7.7168094 0
12.124764 -1.3076345 0
7.8851782 -29.449337 0
1.1433098 -4.1778519 0
-4.357249 -6.4181147 0
-2.9226724 -10.352294 0
4.1944434 -2.2518404 0
9.2398151 -11.183249 0
2.6123886 -2.3718395 0
-10.780313 1.2109895 0
-2.393594 5.8244746 0
-14.893745 8.6362173 0
-616227.85 387734.05 0
-4.646416 7.7214139 0
6.061602 6.4257831 0
6.0192634 9.8323864 0
0.12185467 -0.13035333 0
8.9414983 10.740769 0
0.49112929 11.328148 0
1.3626209 23.700885 0
-0.22974069 16.78249 0
4.464224 16.239991 0
6.0806477 3.6288173 0
5.5388081 -15.659267 0
1.1960988 -12.882435 0
-3.881708 -12.883745 0