# vtk DataFile Version 4.0
hesp visualization file
ASCII
DATASET UNSTRUCTURED_GRID
POINTS 1250 double
27.758924 -1.6839213 4
28.855357 -0.94492997 4
31.584694 3.1048741 4
28.163941 8.1876483 4
30.10392 4.1275072 4
33.754812 6.6508631 4
34.321272 1.3899736 4
34.81944 10.849782 4
30.762149 9.6035348 4
27.820445 8.8749787 4
34.612151 11.193983 4
28.377603 12.3184 4
30.239747 13.533681 4
33.095166 13.452771 4
27.618948 18.408565 4
33.565679 15.569009 4
27.482837 23.095545 4
31.043623 22.716351 4
29.255187 21.232685 4
30.679238 25.604974 4
29.38452 23.293603 4
32.871146 25.030901 4
30.737458 23.421646 4
30.667339 34.711169 4
29.939471 32.585715 4
38.02603 -6.3135214 4
28.247782 1.7093611 4
27.996123 -3.1440821 4
28.7237 5.1575051 4
29.399425 4.7421468 4
29.640033 3.736569 4
28.676386 1.9391397 4
26.655621 6.1673717 4
30.058211 7.2173634 4
26.476659 8.9646682 4
29.714482 10.961832 4
30.318984 10.332114 4
28.849359 16.349815 4
26.466717 13.812626 4
32.510061 13.651532 4
28.521832 22.665149 4
28.334887 15.769862 4
26.699945 19.967528 4
32.474158 18.77909 4
32.677212 21.131364 4
30.969524 28.322292 4
31.664893 21.357724 4
27.144295 29.663542 4
29.656368 34.735855 4
32.157544 29.973425 4
26.704867 0.095972761 4
29.72539 -5.3961852 4
30.553631 1.3073904 4
32.754603 6.1636045 4
32.627411 -0.78004703 4
33.85453 3.265525 4
30.545441 1.8205897 4
31.01722 9.1979441 4
31.385025 10.387339 4
34.181388 11.547409 4
31.476581 9.9623123 4
29.88569 10.790774 4
31.902759 11.658072 4
33.055544 11.128354 4
32.213073 11.80648 4
31.781756 13.594907 4
29.253658 17.445369 4
33.873754 19.251885 4
31.179329 16.104855 4
28.68851 25.01805 4
27.660287 18.987612 4
33.554197 21.736896 4
29.817624 20.986709 4
33.021392 28.896924 4
31.295776 26.4947 4
36.095283 -10.074257 4
31.711281 -1.1420394 4
32.240143 5.4966634 4
32.547826 -0.47998757 4
27.262045 6.6138451 4
30.565644 9.2008932 4
28.289983 9.7174715 4
31.375089 11.819201 4
28.333899 11.137636 4
33.542008 11.905387 4
29.602754 15.215959 4
32.317248 9.9697433 4
30.049892 14.93392 4
30.887605 18.622473 4
31.690452 15.254224 4
32.218433 15.349347 4
28.897024 17.687541 4
33.541576 15.066109 4
30.660917 18.992033 4
31.667111 19.614934 4
34.268505 18.403594 4
31.401304 22.109025 4
29.350765 24.220289 4
28.991686 25.858715 4
32.37769 38.67998 4
33.886003 -5.4884969 4
30.145765 -4.6935309 4
36.094597 4.2290899 4
33.661525 7.3613677 4
27.912127 -0.19474722 4
32.361092 8.5496372 4
32.838449 5.7267589 4
31.088407 5.0725808 4
32.198049 6.8293028 4
32.32563 8.2250868 4
33.677614 7.7928999 4
32.722733 9.2104837 4
34.752648 11.875624 4
34.176573 10.928987 4
33.397823 13.820904 4
34.773386 17.583743 4
33.123092 17.411982 4
31.514206 19.891245 4
30.292083 18.488875 4
35.94438 19.373182 4
33.930379 24.313733 4
32.321487 21.651489 4
36.321218 22.424527 4
33.493147 25.877828 4
31.646517 27.786963 4
29.290825 -4.869965 4
27.562903 -0.19897613 4
34.598853 6.8748184 4
36.246415 6.7393716 4
33.979605 4.2076447 4
31.038055 9.9351974 4
34.102033 9.7353588 4
35.646678 10.358939 4
34.831387 11.360136 4
33.966983 15.137004 4
34.709899 15.773194 4
36.232891 14.988353 4
32.915605 17.602206 4
36.877308 17.451849 4
30.942091 16.751385 4
32.883743 22.949569 4
33.758667 19.757699 4
33.700513 22.089342 4
34.200601 23.625974 4
34.477545 25.609535 4
31.718181 28.673361 4
32.014391 22.080793 4
32.016519 27.817898 4
34.659726 32.297783 4
26.406002 28.958046 4
32.231968 4.5123807 4
29.081802 -6.955696 4
36.424941 5.7550843 4
32.471417 1.567687 4
31.208015 3.434324 4
28.723417 5.7198317 4
31.811625 7.5506455 4
31.967117 9.9728345 4
31.459911 12.080613 4
29.355333 10.052628 4
32.519273 13.071508 4
29.501882 13.194847 4
30.744908 13.645374 4
34.18311 16.052104 4
30.274691 14.482707 4
31.368072 17.247185 4
30.202476 16.796769 4
31.673144 20.33625 4
32.291142 24.362776 4
30.997242 21.581163 4
31.110172 24.09747 4
34.81931 24.696402 4
33.087273 26.769256 4
35.002365 23.934627 4
29.000333 31.294397 4
40.720228 -3.6788448 4
31.946128 2.3479493 4
32.556762 0.33560706 4
35.985905 4.8189943 4
32.980328 10.465979 4
30.244437 0.91185525 4
32.577382 7.6319973 4
28.646851 8.6141183 4
35.830467 8.3129323 4
37.055395 9.3287128 4
32.945997 12.900631 4
32.242105 13.122072 4
33.047054 16.544056 4
32.925573 13.632917 4
36.91494 14.555247 4
33.320343 19.782896 4
35.630598 17.164131 4
32.263408 24.116855 4
33.185699 21.507515 4
30.230534 23.014255 4
31.57888 22.324628 4
29.577104 27.158664 4
35.511064 27.578886 4
31.140997 27.849411 4
39.370669 34.12751 4
33.418069 2.4144105 4
32.959982 2.1751074 4
34.018581 1.2709749 4
30.385459 0.090114325 4
33.447615 4.2085395 4
33.236104 2.6778271 4
33.942713 7.7250575 4
34.385635 10.638365 4
33.455937 12.474578 4
35.571676 12.22823 4
33.468161 16.498604 4
34.676734 15.529892 4
31.693637 15.705178 4
32.816079 14.652941 4
35.519842 18.08548 4
36.703814 18.606435 4
30.552491 15.5105 4
30.988262 15.290955 4
31.553467 16.001834 4
34.944708 19.544648 4
34.764478 24.382229 4
35.063722 26.743987 4
35.464997 23.922216 4
35.481496 28.224836 4
33.244656 27.272494 4
32.17374 -0.82082952 4
28.908508 2.1282889 4
34.412105 1.8644602 4
34.705125 8.4460809 4
32.47058 6.4635183 4
34.846626 7.5947183 4
36.104275 6.2378221 4
34.891333 9.2678241 4
35.273087 11.630526 4
36.708237 13.278483 4
34.831428 12.264609 4
33.315672 14.539003 4
34.633471 16.496007 4
35.195571 15.558203 4
33.370877 18.064348 4
37.449192 20.22892 4
36.862657 20.671623 4
36.055857 23.906232 4
35.264002 21.196887 4
37.714307 24.237541 4
33.322146 25.541117 4
35.214495 26.405147 4
34.009692 27.670628 4
32.689646 29.075253 4
29.65045 28.936088 4
30.919545 -2.2647705 4
32.657275 2.0281686 4
32.733596 2.8365398 4
34.817462 1.5887513 4
38.033316 4.8248012 4
34.707689 4.0532867 4
36.98567 6.7171271 4
35.134332 6.9735597 4
34.340729 9.8470173 4
35.540053 9.6570221 4
35.1229 12.848294 4
36.160483 13.961516 4
37.859241 11.965096 4
37.821452 12.892749 4
34.120522 16.312964 4
33.197155 16.966672 4
35.387352 16.214211 4
34.538353 19.722121 4
33.997052 19.865254 4
35.280991 20.573088 4
37.900772 26.76829 4
33.600196 23.042973 4
33.227938 24.234902 4
34.191401 28.137103 4
30.941262 31.582472 4
37.703872 -5.5174595 4
32.083858 1.1242027 4
32.993139 3.3057052 4
37.715741 5.9806111 4
32.961513 6.5146695 4
38.066844 6.0884629 4
33.943275 7.9960407 4
32.075055 9.7361736 4
34.836169 9.9976927 4
32.684283 9.8692345 4
34.121539 14.785427 4
34.768287 13.485089 4
34.682573 16.195074 4
35.65077 14.031039 4
36.171607 18.078058 4
36.436818 20.973956 4
35.494085 20.127207 4
36.748753 21.352558 4
35.892317 22.388909 4
32.766788 20.533416 4
33.639564 23.579395 4
35.042245 24.580465 4
31.276228 27.524557 4
34.679456 29.838291 4
38.590484 32.879337 4
34.100496 0.3784703 4
35.777499 2.7573875 4
34.803054 2.3998176 4
33.176272 4.5948806 4
37.519055 4.9248793 4
36.768308 6.9939963 4
36.865501 8.339742 4
39.957993 10.0187 4
37.135595 10.700392 4
36.769696 11.516593 4
36.769807 12.643807 4
36.769512 13.757236 4
36.769172 14.893542 4
36.775052 15.99796 4
36.812996 17.020066 4
42.88412 18.643006 4
37.348801 21.277272 4
36.856452 22.106808 4
34.814635 23.406295 4
37.116646 24.771582 4
36.223201 27.363636 4
35.914026 26.991187 4
38.723332 26.055922 4
36.258447 30.741809 4
33.211703 29.436153 4
34.532849 0.82357932 4
34.252224 2.3121996 4
37.149541 4.1561893 4
36.15569 2.3599646 4
34.359182 5.5969192 4
38.550785 7.1878826 4
35.178703 7.952095 4
37.453719 9.4348489 4
37.19253 8.6344365 4
37.003179 9.7767727 4
36.266219 10.860026 4
35.018053 13.088172 4
35.314582 14.725146 4
37.030331 14.251916 4
36.599558 17.944958 4
37.39345 16.705845 4
37.398456 18.282509 4
37.942784 16.755791 4
37.27143 19.589542 4
37.163636 20.662845 4
37.350485 21.945781 4
37.101618 23.176418 4
37.395801 24.056112 4
38.448928 28.071792 4
35.423348 28.892361 4
35.436939 1.1283501 4
35.905367 1.6697702 4
36.838243 3.7367689 4
37.316723 2.4205762 4
35.458623 5.6474808 4
37.430194 7.5557176 4
36.981446 7.4331646 4
35.963511 8.9054523 4
35.56928 10.627501 4
37.012447 10.933739 4
35.343763 11.884306 4
35.764962 12.737823 4
36.086776 14.326829 4
35.691472 15.6143 4
35.504534 16.821429 4
35.608827 18.367624 4
36.008734 20.075156 4
35.484811 20.727107 4
36.260305 21.665548 4
36.602749 24.509921 4
37.481749 23.76009 4
36.348466 25.333851 4
35.482689 23.521166 4
36.499036 28.6379 4
37.565387 28.700872 4
36.559384 1.1282405 4
36.559803 2.2470549 4
37.931554 2.8609271 4
36.567006 4.2684481 4
37.318077 5.3627871 4
37.958116 7.8011191 4
38.479119 9.7168714 4
38.475502 10.853527 4
38.475605 11.976597 4
38.47562 13.09914 4
38.475633 14.221567 4
38.475641 15.344075 4
38.477803 16.471115 4
38.472997 17.577452 4
38.529717 18.735128 4
38.979263 18.572925 4
38.238683 17.678555 4
38.32295 18.899351 4
38.360469 19.980479 4
38.352582 21.101979 4
38.352518 22.224996 4
38.360197 26.192549 4
38.620327 27.065839 4
36.557123 26.938003 4
36.547735 28.037906 4
37.681856 1.1282289 4
37.681575 2.2452114 4
37.821024 3.5539356 4
37.679486 4.4880495 4
38.17081 5.682967 4
38.009802 6.9308827 4
39.712216 9.7554277 4
37.684617 8.9734254 4
37.682203 10.111265 4
37.684721 11.218259 4
37.682856 12.341889 4
37.683852 13.461859 4
37.684757 14.585625 4
37.684778 15.708156 4
39.85259 16.163764 4
37.727416 17.357256 4
37.683746 19.079662 4
37.707259 20.203289 4
37.666815 21.318099 4
37.667846 22.440727 4
37.672865 23.565841 4
38.388896 24.899257 4
38.36165 24.448529 4
37.801347 27.665924 4
37.681694 28.055866 4
38.804319 1.1282273 4
38.804315 2.244934 4
38.804305 3.3673849 4
38.804307 4.4898534 4
38.804158 5.6123222 4
38.804155 6.7348758 4
38.803853 7.8577014 4
40.17202 9.6428429 4
40.167542 10.789207 4
40.167746 11.911675 4
40.167625 13.034412 4
40.16772 14.156895 4
40.168469 15.28198 4
40.156453 16.360496 4
40.184678 17.453921 4
40.373131 18.830807 4
39.774802 20.026257 4
38.804117 20.204145 4
38.804038 21.326756 4
38.804042 22.449219 4
38.804375 23.571829 4
40.865388 23.421135 4
38.836756 25.772496 4
39.731773 26.775874 4
39.024529 28.285614 4
39.926793 1.1282272 4
[...]
POINT_DATA 1250
SCALARS m double
LOOKUP_TABLE default
1
1
1
1
1
1
1
1
1
1
1
1
1
1
1
1
1
1
1
1
1
1
1
1
1
1
1
1
1
1
1
1
1
1
1
1
1
1
1
1
1
1
1
1
1
1
1
1
1
1
1
1
1
1
1
1
1
1
1
1
1
1
1
1
1
1
1
1
1
1
1
1
1
1
1
1
1
1
1
1
1
1
1
1
1
1
1
1
1
1
1
1
1
1
1
1
1
1
1
1
1
1
1
1
1
1
1
1
1
1
1
1
1
1
1
1
1
1
1
1
1
1
1
1
1
1
1
1
1
1
1
1
1
1
1
1
1
1
1
1
1
1
1
1
1
1
1
1
1
1
1
1
1
1
1
1
1
1
1
1
1
1
1
1
1
1
1
1
1
1
1
1
1
1
1
1
1
1
1
1
1
1
1
1
1
1
1
1
1
1
1
1
1
1
1
1
1
1
1
1
1
1
1
1
1
1
1
1
1
1
1
1
1
1
1
1
1
1
1
1
1
1
1
1
1
1
1
1
1
1
1
1
1
1
1
1
1
1
1
1
1
1
1
1
1
1
1
1
1
1
1
1
1
1
1
1
1
1
1
1
1
1
1
1
1
1
1
1
1
1
1
1
1
1
1
1
1
1
1
1
1
1
1
1
1
1
1
1
1
1
1
1
1
1
1
1
1
1
1
1
1
1
1
1
1
1
1
1
1
1
1
1
1
1
1
1
1
1
1
1
1
1
1
1
1
1
1
1
1
1
1
1
1
1
1
1
1
1
1
1
1
1
1
1
1
1
1
1
1
1
1
1
1
1
1
1
1
1
1
1
1
1
1
1
1
1
1
1
1
1
1
1
1
1
1
1
1
1
1
1
1
1
1
1
1
1
1
1
1
1
1
1
1
1
1
1
1
1
1
1
1
1
1
1
1
1
1
1
1
1
1
1
1
1
1
1
1
1
1
1
1
1
1
1
1
1
1
1
1
1
1
1
1
1
1
1
1
1
1
1
1
1
1
1
1
1
1
1
1
1
1
1
1
1
1
1
1
1
1
1
1
1
1
1
1
1
1
1
1
1
1
1
1
1
1
1
1
1
1
1
1
1
1
1
1
1
1
1
1
1
1
1
1
1
1
1
1
1
1
1
1
1
1
1
1
1
1
1
1
1
1
1
1
1
1
1
1
1
1
1
1
1
1
1
1
1
1
1
1
1
1
1
1
1
1
1
1
1
1
1
1
1
1
1
1
1
1
1
1
1
1
1
1
1
1
1
1
1
1
1
1
1
1
1
1
1
1
1
1
1
1
1
1
1
1
1
1
1
1
1
1
1
1
1
1
1
1
1
1
1
1
1
1
1
1
1
1
1
1
1
1
1
1
1
1
1
1
1
1
1
1
1
1
1
1
1
1
1
1
1
1
1
1
1
1
1
1
1
1
1
1
1
1
1
1
1
1
1
1
1
1
1
1
1
1
1
1
1
1
1
1
1
1
1
1
1
1
1
1
1
1
1
1
1
1
1
1
1
1
1
1
1
1
1
1
1
1
1
1
1
1
1
1
1
1
1
1
1
1
1
1
1
1
1
1
1
1
1
1
1
1
1
1
1
1
1
1
1
1
1
1
1
1
1
1
1
1
1
1
1
1
1
1
1
1
1
1
1
1
1
1
1
1
1
1
1
1
1
1
1
1
1
1
1
1
1
1
1
1
1
1
1
1
1
1
1
1
1
1
1
1
1
1
1
1
1
1
1
1
1
1
1
1
1
1
1
1
1
1
1
1
1
1
1
1
1
1
1
1
1
1
1
1
1
1
1
1
1
1
1
1
1
1
1
1
1
1
1
1
1
1
1
1
1
1
1
1
1
1
1
1
1
1
1
1
1
1
1
1
1
1
1
1
1
1
1
1
1
1
1
1
1
1
1
1
1
1
1
1
1
1
1
1
1
1
1
1
1
1
1
1
1
1
1
1
1
1
1
1
1
1
1
1
1
1
1
1
1
1
1
1
1
1
1
1
1
1
1
1
1
1
1
1
1
1
1
1
1
1
1
1
1
1
1
1
1
1
1
1
1
1
1
1
1
1
1
1
1
1
1
1
1
1
1
1
1
1
1
1
1
1
1
1
1
1
1
1
1
1
1
1
1
1
1
1
1
1
1
1
1
1
1
1
1
1
1
1
1
1
1
1
1
1
1
1
1
1
1
1
1
1
1
1
1
1
1
1
1
1
1
1
1
1
1
1
1
1
1
1
1
1
1
1
1
1
1
1
1
1
1
1
1
1
1
1
1
1
1
1
1
1
1
1
1
1
1
1
1
1
1
1
1
1
1
1
1
1
1
1
1
1
1
1
1
1
1
1
1
1
1
1
1
1
1
1
1
1
1
1
1
1
1
1
1
1
1
1
1
1
1
1
1
1
1
1
1
1
1
1
1
1
1
1
1
1
1
1
1
1
1
1
1
1
1
1
1
1
1
1
1
1
1
1
1
1
1
1
1
1
1
1
1
1
1
1
1
1
1
1
1
1
1
1
1
1
1
1
1
1
1
1
1
1
1
1
1
1
1
1
1
1
1
1
1
1
1
1
1
1
1
1
1
1
1
1
1
1
1
1
1
1
1
1
1
1
1
1
1
1
1
1
1
1
1
1
1
1
1
1
1
1
1
1
1
1
1
1
1
1
1
1
1
1
1
1
1
1
1
1
1
1
1
1
1
1
1
1
1
1
1
1
1
1
1
1
1
1
1
1
1
1
1
1
1
1
1
1
1
1
1
1
1
1
1
1
1
1
1
1
1
1
1
1
1
1
1
1
1
1
1
1
1
1
1
1
1
1
1
1
1
VECTORS v double
-1.8441039 -6.9803107 0
-4.5234846 -4.9681325 0
-3.8318568 -10.249623 0
-0.96333004 -13.770241 0
-7.3488616 5.2703569 0
9.773704 -1.8279851 0
-3.8398687 4.5011719 0
15.240661 3.686527 0
-12.623617 1.6020164 0
7.9115798 3.0993643 0
0.16975312 -7.4646594 0
3.5323128 -8.230282 0
-7.5674307 -1.0770946 0
-0.19184688 -4.8871721 0
-6.3691989 8.4244941 0
-2.2463209 4.8042375 0
5.8877558 -4.7488232 0
18.160181 -9.5221043 0
-2.4236799 -4.9910314 0
0.12919209 12.383376 0
-1.3274291 7.0438258 0
0.57121288 9.5560897 0
4.8211625 -3.9425559 0
0.20964354 22.962569 0
1.6738925 10.721287 0
8.8418317 -9.084721 0
-12.145296 -4.0449258 0
-4.8738965 -9.0168092 0
7.6524755 1.8812199 0
-2.8631288 3.8470118 0
-3.3327977 -1.8522702 0
9.8280531 -13.399189 0
-4.825736 -8.3575871 0
-14.683993 -2.8547477 0
-4.3590914 -9.5456558 0
-7.3175232 -7.6580401 0
10.622159 6.03945 0
-5.8043987 6.3006074 0
-24.359137 -22.05018 0
-6.0365184 -0.90121376 0
-3.9887383 5.3664983 0
1.0983104 -9.226651 0
-7.5169915 -1.4234646 0
-7.7976517 -19.337831 0
-0.56283909 3.1461109 0
-8.5201866 4.5656769 0
-5.0629021 -1.2475946 0
-2.3343852 2.5195706 0
1.4689447 13.663506 0
-7.0643551 8.5008809 0
5.5355071 -11.114203 0
3.1106294 -15.912779 0
-5.7014219 -7.8581668 0
-2.0064059 3.4428368 0
10.869229 -12.5773 0
-7.5704942 1.068416 0
-11.217186 -4.6759563 0
2.7262813 4.1731168 0
6.7974488 6.4616196 0
0.5025368 3.2706092 0
-10.892573 -11.475891 0
6.6819912 -11.522656 0
5.6543975 3.9515889 0
-0.72856328 0.70009333 0
-2.5570226 2.6909332 0
2.2393195 -6.0258682 0
-2.4500916 -2.0998353 0
2.7656535 11.224126 0
15.50357 -1.216826 0
-4.2059108 2.6711935 0
2.2021628 3.0746107 0
6.4368155 0.48230333 0
2.4205631 -9.7628565 0
6.4776005 5.992573 0
-2.1423732 -0.82437155 0
3.9466542 -13.879275 0
-3.7531151 -5.3096298 0
-0.92872655 -0.81937069 0
3.4558832 -11.96737 0
1.01332 -11.5609 0
-4.5764372 6.8582626 0
-8.4563021 -1.7472861 0
5.8217906 3.301203 0
0.83759018 -0.93958606 0
-2.4950753 -4.5464069 0
-0.57291469 -1.155263 0
-10.796618 -9.8050419 0
-3.229083 -4.9565743 0
8.8607533 -7.8380005 0
2.9039727 -0.62634718 0
5.3347273 -2.8724885 0
12.507393 -9.1311062 0
-2.8415128 -3.3580333 0
-8.4476544 -5.5780417 0
-11.208484 0.59656622 0
3.0807959 -8.2249715 0
-4.5175323 3.5158801 0
6.3659658 9.0804656 0
-2.0675612 -3.1365195 0
0.47115582 14.494986 0
3.37244 -12.746344 0
-5.5327397 -14.761403 0
1.76056 4.9353224 0
-2.6247101 6.8227932 0
-7.1992145 -11.76252 0
-13.961893 -0.94442364 0
5.928116 2.9297045 0
-7.3023626 -7.9616891 0
15.328738 -8.6962662 0
6.3862616 -7.9588242 0
12.327452 -2.1830277 0
-10.773387 5.9666669 0
-3.6203321 6.9999578 0
3.4918285 -21.483987 0
-1.3055976 -1.984539 0
17.874019 1.6220262 0
-5.4280142 8.7973169 0
-10.429386 -2.6018796 0
2.6322398 8.9827932 0
4.7022423 -4.7543022 0
1.3893438 12.206532 0
3.0750809 15.271533 0
8.5945529 1.7453838 0
-5.7182054 1.006565 0
-7.8337181 0.41898073 0
-2.3888067 -8.9876982 0
-10.977864 -9.9939165 0
3.08149 2.4830063 0
3.3019471 -7.4830398 0
1.1254359 -7.5676329 0
-8.8266479 10.026536 0
-5.9447726 0.10151701 0
-6.2330514 12.35116 0
4.2485323 1.5822265 0
10.874912 8.3862646 0
2.5400495 10.221818 0
10.890796 5.241127 0
8.2777791 -3.5767984 0
6.7650418 6.9518612 0
-5.0415729 -15.462178 0
-8.1520289 5.0911441 0
5.8137264 -5.2905787 0
-2.9592606 -6.2218765 0
2.1187653 8.5601832 0
-5.9218032 6.6071932 0
4.840314 11.833633 0
1.1597263 -0.30261262 0
4.5381242 1.1759859 0
2.7835577 9.3004585 0
-9.1251023 1.0191198 0
-0.34265708 12.908867 0
-7.1221706 -15.017643 0
3.0962849 -15.553327 0
-0.31769441 -3.8665317 0
3.1312338 -13.81195 0
2.4067295 1.7116058 0
5.6349259 -3.5010674 0
-4.4238069 5.5485343 0
9.8124745 9.3336502 0
0.31692938 -5.0390722 0
-1.93141 2.6291451 0
-5.3406299 3.3698806 0
0.22254714 -6.4598801 0
5.9894901 9.4840444 0
-1.6980268 -1.8330832 0
13.723375 -6.3092691 0
-0.49062853 8.9329009 0
0.54401049 5.7110104 0
1.5094552 -2.9986222 0
4.2158007 -0.92330055 0
7.4060741 -1.854915 0
8.6444589 -0.89767593 0
0.14057439 10.699116 0
2.7313892 -0.29335752 0
-9.1950542 7.0744972 0
7.9152496 -6.5258364 0
-12.402603 -5.1498568 0
2.1212704 -16.801465 0
-0.42956043 -7.1938294 0
-11.769378 8.947414 0
-4.8694034 -16.36231 0
-4.4764082 -3.9192968 0
-9.933515 -12.526777 0
11.690292 -6.1069785 0
0.89495686 -2.1322989 0
-4.7893275 -2.4453528 0
-8.4545799 -1.8964616 0
-12.106043 5.4132723 0
10.352297 -7.8333766 0
6.8390859 -5.8236896 0
2.0716694 7.3108024 0
9.6098092 -14.584483 0
-10.368642 2.7621025 0
10.919067 -0.93562794 0
-8.2880215 -0.99962228 0
4.1042706 -7.6778809 0
-9.0946683 3.1888838 0
3.4870303 5.3571965 0
1.3336138 10.767366 0
6.2746824 8.8215947 0
-4.0349923 10.428829 0
-8.2769649 -3.5538166 0
0.093911766 0.96187288 0
6.3445124 -18.452192 0
-11.656428 -2.7497133 0
4.3105643 -0.012019855 0
-0.44316581 -5.5079011 0
5.6002179 9.2170471 0
10.791656 -10.821414 0
4.0185678 -2.0147184 0
7.9452924 8.6409664 0
11.954187 5.267492 0
-1.8612698 -15.013095 0
-5.5697778 -18.858092 0
-5.8876744 1.1693544 0
14.449956 -6.7305272 0
5.6472907 -13.796434 0
-8.1152669 -8.0771786 0
-9.6309041 3.6730214 0
7.1225795 8.0419865 0
-13.235777 9.4170921 0
3.3752603 4.4874056 0
-2.6971693 -3.2376455 0
-0.19497208 6.1273853 0
-8.2645782 0.27035811 0
2.328389 -1.071113 0
-10.141135 1.6105336 0
2.5553743 -6.2855775 0
-6.4055416 8.3894182 0
2.8174227 -5.3749204 0
-1.8718594 1.7806753 0
-10.653289 5.7021642 0
9.3873534 6.5052445 0
-10.190179 1.4855612 0
3.2896426 4.9469611 0
2.3096804 -1.4925975 0
-5.0787437 19.33007 0
-6.161793 -1.6610844 0
-10.620463 -4.4794728 0
-5.9552291 -4.3594244 0
-8.4183867 5.8582062 0
2.1688034 -3.2780499 0
-5.6908785 12.890394 0
-1.9158754 -7.5628762 0
0.76146729 -0.097967529 0
-10.325648 -3.5242974 0
-8.2307416 -4.2980875 0
-8.2235962 -2.05947 0
-1.6321192 -2.4912646 0
-10.633574 6.0428306 0
-9.366966 -11.171078 0
6.9460752 -2.4015004 0
-1.4501587 -5.269026 0
-13.37428 -12.747518 0
4.9847955 0.79950477 0
-7.785646 -3.8184799 0
1.8060902 0.3026968 0
-5.0851661 -10.376635 0
-3.4505453 5.4239658 0
2.1132251 -10.925454 0
6.7107419 14.353708 0
1.5144975 5.728317 0
4.9756961 -4.0115233 0
4.7403826 -5.3128834 0
-10.912994 2.988048 0
-9.7595005 9.1358261 0
-3.8806321 -14.816062 0
5.0572264 13.807582 0
-3.0590894 1.2013102 0
-3.1412751 -3.8665674 0
0.74838058 -2.2426953 0
5.9292307 -6.5874743 0
8.0567269 -12.265576 0
-8.7623171 3.185127 0
-10.026396 9.1836831 0
0.82951609 -12.770011 0
-7.7115155 -5.6518013 0
-0.89706176 0.02294028 0
-5.9574322 -3.7541916 0
-6.810502 -9.9374144 0
8.1118738 -6.3186254 0
3.2954155 -7.8377004 0
-7.2769916 -10.405129 0
0.24097243 -4.0945058 0
-2.636672 -14.540764 0
-9.961395 1.0271919 0
-1.6440681 -2.2723911 0
4.8552673 8.8832588 0
-7.9592679 -3.1872188 0
10.406957 4.1650287 0
3.8772105 12.103088 0
-9.1491738 3.410292 0
3.5607755 6.0962707 0
7.7803094 -2.5408839 0
-0.21729963 -9.5461968 0
1.4408587 -3.0845851 0
-6.4862715 0.68814968 0
-13.546519 7.7658141 0
-12.56075 8.7672404 0
3.3785757 9.8878997 0
-0.94608172 -7.7039315 0
-12.809691 -2.9856779 0
10.293723 -16.158816 0
-10.15277 1.2627793 0
-9.0072251 -7.0213028 0
-8.5065596 -3.1959488 0
-7.195462 2.2058429 0
14.242306 2.285383 0
-0.50716024 -3.1969298 0
-8.4823793 -2.8110738 0
-8.4797901 -2.706186 0
-8.4930735 -2.8413934 0
-8.3460184 -1.7627671 0
-8.4620742 -2.8514281 0
-6.0734978 -6.7374966 0
13.985345 1.8810156 0
-0.90512477 4.4899454 0
-8.1344467 1.4416641 0
-10.829108 -4.7659137 0
-4.8449898 6.5455943 0
-4.9221616 9.526563 0
0.82557646 4.6171066 0
-2.3840909 5.5270274 0
-4.5674773 9.5568667 0
-9.9188442 5.823711 0
0.47405592 -14.723706 0
-10.375735 -0.16359571 0
4.5267472 4.6127034 0
6.6790977 0.11551964 0
-9.7464394 0.080685351 0
5.6677392 2.9742105 0
-10.417471 0.92821839 0
6.9217421 8.1813366 0
-1.2298814 0.17591256 0
-2.6785062 -9.1736058 0
-2.3046237 -5.8513462 0
-5.9704149 -0.9815719 0
-5.841674 -0.54804093 0
3.8881146 -7.998058 0
4.9672369 3.596526 0
-12.042997 -3.2454748 0
-2.6895969 -1.9266992 0
-0.92917438 -7.9913187 0
-5.2355544 -3.0903995 0
-6.2017191 -2.9391118 0
-0.58715538 -0.64797587 0
-7.7694701 2.2075243 0
-10.544645 -3.0398708 0
-15.264317 5.0491344 0
-1.5054106 6.9933353 0
-9.9994215 0.015666666 0
-3.687945 -7.7001691 0
-1.1599372 3.3495472 0
0.86794209 -6.7963193 0
-9.6765386 0.40899521 0
1.1520367 -6.8720383 0
-11.096121 -14.095691 0
-9.5639149 0.36420198 0
-9.4101886 3.5008829 0
1.1114648 2.5192645 0
-10.030679 -0.21480121 0
-5.4963423 -7.5448512 0
5.2135193 1.7489473 0
-1.7239767 -1.4339663 0
-8.2471621 0.7884152 0
-6.8949588 8.6793817 0
-1.1993585 2.8449482 0
-3.1036274 7.0726686 0
-4.7655207 -0.61218199 0
5.0761118 8.3073991 0
-0.48780232 -2.3341279 0
-10.242093 -1.2783584 0
-9.1697049 -9.1376853 0
-3.9116252 9.2376485 0
0.086878381 3.1307141 0
-10.000596 0.010801929 0
-10.008 0.047647716 0
-1.7030866 -6.2054905 0
-9.8380653 -2.4143486 0
-2.5852915 -3.3682421 0
3.6847194 0.18382023 0
-10.867495 5.8282606 0
-10.927142 5.9513157 0
-10.929 5.9621462 0
-10.927781 5.9621312 0
-10.925808 5.9622198 0
-10.925665 5.9626292 0
-10.887122 6.0339653 0
-9.8231622 5.3413533 0
2.6077041 -5.4023285 0
-6.9322529 -3.5771186 0
-2.1810675 -9.4442413 0
-13.617376 2.1836827 0
-0.3807944 -9.6447371 0
-0.31036725 -9.5336202 0
-0.30301092 -9.5233633 0
1.5324185 10.075094 0
6.2400127 6.9383945 0
-10.0784 0.020479692 0
-10.229629 -0.031057107 0
-10.000024 0.010234023 0
-10.037911 0.02606662 0
-7.1342749 3.8434009 0
-10.023483 -0.066298917 0
-4.8258786 0.79014352 0
-2.6266392 5.1010124 0
1.8014827 11.199634 0
-9.9996398 -0.02585444 0
-9.9966977 0.12724422 0
-9.9783751 -0.039635597 0
-9.9888348 0.045732184 0
-10.00256 -0.10305605 0
-9.9773876 -0.040902797 0
-9.9750278 -0.039590112 0
8.427279 -5.687634 0
-9.9464221 -2.9972952 0
-9.8915655 0.062230141 0
-0.46007254 -0.22462747 0
-10.23695 -0.16319935 0
-10.164248 -0.15888938 0
-9.6158064 -0.5260978 0
0.26141038 2.8357409 0
-12.065167 -2.4814972 0
-5.1740936 19.665658 0
-9.9986393 -0.027711055 0
-10.000001 0.010176844 0
-10.000165 6.7780499e-05 0
-10.00065 -7.5659649e-05 0
-10.000653 0.00025831779 0
-10.008173 0.00079262668 0
-10.013006 0.012621032 0
-10.004599 0.0018942164 0
-10.058548 1.586858 0
-10.028198 2.4203514 0
-10.025164 2.4203776 0
-10.025773 2.430657 0
-10.024425 2.431099 0
-10.004603 2.5228513 0
-10.299664 0.99156049 0
-9.8128964 -0.21767145 0
-1.6862698 9.7644601 0
-3.5933207 5.6635227 0
-10.022723 -0.0087846055 0
-10.023237 -0.0055172074 0
-10.023066 -0.0056046585 0
-9.9997212 0.0013411412 0
-7.8247366 -9.3106063 0
-5.9050815 -5.779848 0
-9.1373162 -3.2487141 0
-3.964498 6.2563862 0
-9.9999639 0.010171227 0
-9.9999959 -3.9734726e-05 0
-9.9999972 9.3058492e-07 0
-10.000003 3.8180772e-06 0
-10.000014 4.4500136e-06 0
-10.000026 1.4749452e-05 0
-9.9989092 0.0017902397 0
-1.7721122 -7.1935207 0
7.0290943 1.0720241 0
6.8603599 0.19544951 0
6.8640019 0.19662413 0
6.8600709 0.18596785 0
6.8615783 0.18563101 0
6.8561237 0.092845286 0
6.7629492 1.625825 0
6.9025113 2.9579358 0
-9.9699173 -0.048220451 0
-6.7888266 3.7146067 0
-10.00003 -4.3092262e-05 0
-10.000111 0.0014213072 0
-11.828017 -5.3481892 0
-10.005148 -0.0081495768 0
-10.000256 0.00066073627 0
-0.53890303 2.5410814 0
-10.000473 -0.010434222 0
-9.9999313 0.010171196 0
-9.9999899 -3.8929256e-05 0
-9.9999899 3.0702186e-06 0
-9.9999899 3.8963423e-06 0
-9.99999 3.9116601e-06 0
-9.9999933 1.0669342e-05 0
-10.000792 0.00090446856 0
-10.004485 -0.0011987319 0
-10.029429 -0.024244274 0
-10.023054 -0.018993903 0
-10.023096 -0.019042526 0
-10.023011 -0.018961504 0
-10.023036 -0.018971917 0
-10.022608 -0.018914718 0
-10.028101 -0.021367059 0
-10.042651 -0.0060629348 0
-10.000816 -0.016124531 0
-10.000051 -4.6177138e-05 0
-9.9999935 5.5619923e-06 0
-10.000075 0.00028301151 0
4.7210321 3.4991941 0
-10.000083 -0.00019226227 0
-10.000018 2.443784e-05 0
-10.000668 9.2899234e-05 0
-10.000017 -0.010194569 0
-9.9999003 0.010171179 0
-9.9999859 -3.6887955e-05 0
-9.999986 5.0305245e-06 0
-9.999986 5.8571931e-06 0
-9.9999859 5.8566522e-06 0
-9.9999866 5.659974e-06 0
-9.9999944 9.1389114e-06 0
-10.000011 1.0087469e-05 0
-10.000027 5.808131e-06 0
-10.000027 5.1471454e-06 0
-10.000026 5.2138895e-06 0
-10.000026 5.1090764e-06 0
-10.000015 1.3537314e-05 0
-10.000015 1.291946e-05 0
-10.000018 3.0724126e-05 0
-10.001278 0.010191106 0
-9.9991011 -0.039868246 0
-9.9999774 -1.1046691e-05 0
-9.9999726 1.6358685e-05 0
-9.9999821 2.241904e-05 0
-10.000079 1.7217865e-05 0
-9.9999824 8.2123928e-06 0
-9.9999738 1.6680167e-05 0
-9.9999747 5.9028928e-05 0
-9.9999732 -0.010155545 0
-9.9997155 0.010171042 0
-9.9999705 -2.5445891e-05 0
-9.9999702 1.6215789e-05 0
-9.9999701 1.7530884e-05 0
-9.999969 1.8512616e-05 0
-9.999969 1.8506562e-05 0
-9.999969 1.8506654e-05 0
-9.999969 1.849993e-05 0
-9.9999685 1.8999651e-05 0
-9.9999679 1.8991089e-05 0
-9.9999679 1.9480181e-05 0
-9.9999678 1.9482377e-05 0
-9.9999679 1.9497722e-05 0
-9.9999675 1.9487154e-05 0
-9.9999709 2.3796606e-05 0
-10.000309 0.00039341657 0
-10.001514 -0.0012924269 0
-9.9999724 1.1815931e-05 0
-9.9999663 2.0877536e-05 0
-9.9999598 2.7512402e-05 0
-9.9999603 2.7268124e-05 0
-9.9999594 2.715664e-05 0
-9.9999588 2.8587018e-05 0
-9.9999588 7.0659607e-05 0
-9.999958 -0.010142833 0
-9.9995336 0.010170937 0
-9.9999567 -1.4102021e-05 0
-9.9999568 2.7407884e-05 0
-9.9999568 2.8733667e-05 0
-9.9999557 2.9686774e-05 0
-9.9999546 3.0688685e-05 0
-9.9999545 3.0673185e-05 0
-9.9999545 3.0674082e-05 0
-9.9999545 3.0675834e-05 0
-9.9999545 3.0678856e-05 0
-9.9999538 3.0673504e-05 0
-9.9999538 3.1172588e-05 0
-9.9999533 3.1164689e-05 0
-9.9999533 3.1644948e-05 0
-9.9999529 3.2279288e-05 0
-9.9999564 3.3379057e-05 0
-9.9999575 3.1003959e-05 0
-9.9999515 3.2305433e-05 0
-9.9999493 3.5062455e-05 0
-9.9999495 3.5066581e-05 0
-9.9999495 3.5062084e-05 0
-9.9999496 3.5061036e-05 0
-9.9999495 3.5893599e-05 0
-9.9999495 7.797627e-05 0
-9.9999492 -0.010135975 0
-9.9993911 0.010173924 0
-9.9999154 -1.3782552e-05 0
-9.999914 2.8906497e-05 0
-9.9999135 3.0220233e-05 0
-9.999913 3.020452e-05 0
-9.9999115 3.1169909e-05 0
-9.9999108 3.265301e-05 0
-9.9999018 3.3140919e-05 0
-9.9999009 3.3603259e-05 0
-9.9998996 3.4598789e-05 0
-9.9998991 3.5560121e-05 0
-9.9998991 3.5555788e-05 0
-9.9998985 3.5551901e-05 0
-9.9998985 3.603376e-05 0
-9.9998979 3.6543981e-05 0
-9.9998974 3.6522494e-05 0
-9.9998968 3.7020939e-05 0
-9.9998968 3.7507926e-05 0
-9.9998968 3.7504228e-05 0
-9.9998884 3.749294e-05 0
-9.9998878 3.8480558e-05 0
-9.9998791 3.8957905e-05 0
-9.9998788 4.0266182e-05 0
-9.9998792 8.2032577e-05 0
-9.9998874 -0.010134583 0
-10.008956 0.009609185 0
-10.010094 6.1394528e-06 0
-10.010092 3.887518e-05 0
-10.010092 4.0199012e-05 0
-10.01009 4.1181232e-05 0
-10.01009 4.166522e-05 0
-10.01009 4.1677972e-05 0
-10.01009 4.1664791e-05 0
-10.010106 4.1680813e-05 0
-10.010106 4.1681902e-05 0
-10.010105 4.1172451e-05 0
-10.010097 4.2176139e-05 0
-10.010096 4.2647895e-05 0
-10.010096 4.3646388e-05 0
-10.010095 4.3636866e-05 0
-10.010095 4.4130752e-05 0
-10.010094 4.4616397e-05 0
-10.010094 4.5118206e-05 0
-10.010094 4.5115438e-05 0
-10.010094 4.510109e-05 0
-10.010092 4.6610619e-05 0
-10.010093 4.6580092e-05 0
-10.010083 4.7880562e-05 0
-10.010086 8.1637366e-05 0
-10.009523 -0.0095631673 0
9.3664082 -3.8409618 0
-3.4855455 -4.5412515 0
-8.1345792 5.9713884 0
6.9878393 -11.314252 0
0.31543256 -3.1538307 0
1.1853933 -6.9648546 0
2.1979041 1.7842089 0
-3.8559119 -3.7828805 0
1.6019655 4.1076819 0
-3.015652 4.4471718 0
7.7736742 -12.448609 0
4.9523117 -11.618566 0
-20.245472 -6.4486519 0
1.2623896 -3.6099366 0
1.2355289 -8.7995291 0
-1.451982 -2.3898824 0
15.610023 0.4784345 0
9.9129901 -17.941773 0
1.5760054 11.029541 0
-1.6831738 12.06879 0
-4.0423169 2.284519 0
0.38131005 10.103514 0
8.2144735 4.7080028 0
-2.62823 22.954804 0
-9.4775388 5.5651359 0
7.3589006 -2.0843141 0
2.3862616 -4.6120837 0
5.22921 0.073699244 0
1.4125807 -5.7003774 0
-9.2162752 -6.1389575 0
0.80175207 -7.7316093 0
5.0278202 2.6300052 0
2.2349232 10.392513 0
0.029853118 -2.3908945 0
6.5262968 10.897133 0
-11.854717 8.634475 0
-0.22978538 -8.5579176 0
6.6177701 -6.7335953 0
-8.9101584 4.9858617 0
-0.18247914 5.9584696 0
0.96919003 6.544884 0
11.427032 4.8185986 0
-4.2534379 -5.512335 0
-6.926111 2.5742273 0
-6.7282971 0.91307238 0
-1.1680934 17.35498 0
-5.673698 6.9239921 0
6.1764268 0.29789256 0
7.8736659 5.4778452 0
-0.12109199 9.339786 0
8.235822 -6.0207243 0
0.58325308 -0.4290807 0
-5.4591914 -1.4398548 0
-6.8627475 -6.0516285 0
-6.7262238 14.82546 0
7.4827152 -4.1742536 0
-2.232518 -12.982185 0
5.184937 -10.414329 0
-7.6769518 7.3672197 0
2.4047126 -4.8984237 0
2.9473777 -1.8973176 0
-2.2095654 -10.815743 0
-9.0736753 10.514728 0
-1.3444368 -4.0375657 0
-0.24167251 4.1723864 0
7.2237586 1.8670182 0
4.8833912 0.75191481 0
-4.4180692 -7.3865623 0
3.0897301 -4.7594553 0
7.2899899 1.5456789 0
5.0629807 5.4743023 0
0.96793088 1.9772509 0
5.9756867 6.3547143 0
9.6757038 0.19596367 0
3.0624533 -9.2919527 0
-6.5485128 -6.7367902 0
-1.9776912 -10.564139 0
-11.251487 -3.853125 0
-2.0576608 -0.88655307 0
-3.1402722 2.3974006 0
13.826788 -2.8294821 0
-2.6214312 3.2116631 0
7.6335672 2.4308516 0
-2.2312405 5.2987554 0
-7.7658097 1.270878 0
-2.6522903 1.6454775 0
0.691877 0.26802391 0
9.2890745 5.6707058 0
0.2437994 0.065875957 0
-12.697909 17.403356 0
-0.28442431 -4.7775157 0
-13.748011 -7.5549444 0
-7.1962929 -3.4062608 0
-18.223853 -0.54404016 0
-8.2212112 -6.4247478 0
-0.90335038 -6.8093156 0
10.811407 1.1955106 0
-0.27453604 5.980696 0
7.1180841 2.7578892 0
7.0375682 8.2929064 0
8.3178686 -8.7026239 0