# vtk DataFile Version 4.0
hesp visualization file
ASCII
DATASET UNSTRUCTURED_GRID
POINTS 1250 double
27.917687 -6.2499125 4
27.774975 -4.6516111 4
31.080367 -5.7626586 4
26.839917 2.3044488 4
31.515519 6.0002923 4
33.646533 3.5194147 4
33.30719 -3.6138628 4
36.416997 10.78118 4
30.4067 13.257292 4
29.667112 8.4812451 4
34.286668 12.141751 4
32.308628 11.182478 4
32.244578 11.743059 4
31.174391 14.090869 4
29.431838 20.761059 4
34.751036 13.497655 4
27.053988 25.796361 4
29.283698 19.145609 4
30.388216 21.799255 4
31.012494 31.040616 4
29.685153 25.940652 4
31.48342 27.465277 4
32.098428 21.652621 4
30.784133 47.569984 4
30.903236 38.756523 4
42.976498 -11.399862 4
26.748096 -4.1927465 4
25.452803 -8.6586197 4
30.538874 1.7061978 4
27.720184 7.4242816 4
27.514203 2.8433949 4
25.95943 -0.8489578 4
27.568875 -1.417471 4
28.622603 1.7153214 4
28.421266 3.6369057 4
27.501918 9.6228574 4
35.053912 8.0354612 4
29.923196 15.783252 4
29.14182 10.818739 4
32.731328 11.897858 4
28.08884 23.087361 4
28.516021 13.24183 4
26.213105 18.052768 4
33.962721 18.80243 4
32.08474 24.766455 4
29.12362 32.006837 4
30.645064 20.977895 4
30.820991 31.867399 4
30.479008 42.387699 4
30.338496 33.275379 4
31.73018 -5.9214271 4
31.466371 -14.30121 4
30.248078 -3.288996 4
34.108248 2.3129231 4
38.654507 -7.8129239 4
35.965376 2.5436715 4
30.8583 -4.4237073 4
35.304665 10.610763 4
33.331923 9.9380947 4
33.552574 9.5787814 4
30.268973 7.2041448 4
28.757775 10.198546 4
31.417444 11.059511 4
33.379335 7.5910883 4
32.068804 12.510014 4
31.002532 12.555723 4
30.98757 16.13298 4
36.727326 21.14783 4
31.202222 16.585863 4
28.047008 30.928881 4
27.817641 21.202989 4
36.632108 23.084233 4
30.760151 19.343897 4
34.195048 32.181051 4
31.9499 26.837195 4
38.30541 -17.846651 4
29.782603 -3.9648688 4
31.291974 8.5343243 4
35.179467 -8.4376616 4
26.532416 5.6621301 4
29.040742 7.99652 4
26.316719 8.9363581 4
32.669638 9.6481021 4
29.303097 11.498645 4
32.386893 8.7296566 4
29.095038 14.53612 4
32.297659 7.8530437 4
30.26534 15.830171 4
33.388436 17.583782 4
30.659366 9.8267037 4
32.102294 17.170213 4
28.448212 14.362257 4
33.761485 12.972946 4
31.97349 19.377677 4
28.950865 22.427048 4
36.648727 11.307215 4
29.387196 23.576393 4
28.933466 27.299304 4
29.80536 29.509789 4
32.641532 46.79717 4
35.774565 -12.626443 4
27.035371 -12.958022 4
34.847623 1.7757353 4
35.014252 6.7682961 4
23.847961 -5.329783 4
26.706758 6.5896099 4
31.254619 4.0852371 4
28.364643 2.9078239 4
36.127647 7.0434454 4
35.741098 4.0377045 4
31.61473 7.2118175 4
34.432997 4.5023615 4
34.80774 12.068972 4
31.752308 9.7075133 4
35.251127 15.546569 4
37.380454 18.122442 4
33.087695 14.379305 4
30.776979 16.581354 4
31.80091 18.58165 4
36.314624 21.6605 4
31.768108 27.335364 4
34.501061 27.716626 4
36.242494 25.59913 4
31.698357 30.73004 4
31.746541 28.501834 4
27.966791 -9.9099573 4
27.166878 -12.065753 4
37.046155 9.3734256 4
34.415917 5.8283445 4
31.86494 2.2584516 4
36.681675 9.3455498 4
32.309401 5.8891571 4
36.206851 6.0793375 4
34.715984 12.695728 4
38.997152 17.238489 4
34.787838 15.19698 4
35.580342 15.997306 4
32.136414 20.973879 4
39.666506 16.103902 4
30.947184 12.917386 4
33.582518 24.222933 4
32.23011 22.499383 4
34.877104 23.864984 4
35.121041 27.377038 4
36.305589 31.121521 4
32.034625 31.77097 4
32.384277 19.767404 4
29.208713 29.492455 4
36.218518 37.505995 4
28.643842 32.093951 4
30.852469 3.4458042 4
25.093393 -15.365564 4
34.676351 -0.43152438 4
30.530542 -3.4418164 4
30.877976 -1.2500312 4
30.010649 5.5854046 4
30.071583 6.1434427 4
33.337247 8.7760065 4
31.591691 10.425915 4
28.147562 10.752102 4
37.861105 12.280624 4
31.010412 13.916498 4
31.00352 11.281589 4
33.409257 16.475568 4
28.352003 18.706936 4
27.680489 15.653909 4
30.567845 19.925744 4
28.864292 22.719783 4
34.681514 28.371086 4
32.530624 22.824431 4
31.257764 25.920305 4
32.379308 26.751406 4
31.182829 31.752613 4
33.602979 26.498072 4
26.257058 36.457538 4
45.152768 -7.3333132 4
31.562353 -1.8977828 4
32.83915 -7.8387087 4
32.205648 5.4818001 4
34.986557 9.1146931 4
27.60044 -8.3135369 4
35.292474 8.6652655 4
25.602918 6.527066 4
35.267368 4.6867364 4
36.047586 6.5773405 4
33.162147 11.925352 4
29.608921 14.002177 4
35.130062 21.988298 4
34.074969 10.569308 4
35.521234 15.440651 4
33.573685 18.947739 4
36.202437 15.933518 4
30.925297 23.089074 4
36.065089 21.154416 4
29.672947 22.650993 4
31.137142 19.232545 4
27.809576 33.957417 4
34.423309 31.975362 4
33.050259 29.808197 4
42.884433 39.06754 4
30.934664 5.1816049 4
33.234618 3.1622267 4
32.337449 0.47765123 4
33.791826 -10.343755 4
31.532678 -0.34344735 4
30.319111 4.1292681 4
34.408742 3.1982108 4
35.745835 8.7187315 4
34.83515 11.602332 4
35.642267 10.860754 4
31.324137 17.118636 4
32.609792 19.445295 4
30.523708 15.47563 4
29.788031 14.195004 4
36.366108 22.894627 4
37.154291 17.957515 4
31.263644 12.568998 4
32.439476 9.1071714 4
31.009058 14.84601 4
35.580593 19.3614 4
37.361264 25.201157 4
37.106324 29.068952 4
32.98449 22.009979 4
36.803217 32.557187 4
33.667509 30.020868 4
33.265856 -1.8302702 4
25.067321 -5.4413721 4
36.251373 -2.8362966 4
34.140717 11.555433 4
30.283775 3.3502452 4
33.833014 6.9708635 4
35.330735 7.8098589 4
38.503317 8.9150227 4
35.476028 14.068804 4
39.354686 8.9956368 4
33.888621 12.564199 4
30.654558 12.407699 4
32.388532 17.383577 4
36.702884 12.112914 4
32.680026 17.925272 4
32.862958 19.236961 4
35.403306 19.926253 4
33.025497 27.025343 4
33.587335 21.382382 4
34.532109 25.848556 4
32.451269 24.341948 4
30.758179 25.949263 4
32.489256 29.818263 4
34.984841 32.035168 4
25.000361 33.689789 4
25.933806 -8.4816738 4
32.210422 -1.8195529 4
32.550118 -0.15881674 4
28.211862 -1.56761 4
40.816172 4.9861125 4
33.923036 3.1147734 4
35.894307 8.5426058 4
34.580238 2.6685042 4
36.135877 8.2136446 4
35.50795 11.98766 4
34.745921 16.722729 4
36.859582 14.971321 4
40.650656 11.612605 4
39.346233 9.754081 4
32.158784 17.92636 4
31.837211 18.10092 4
36.093569 14.545441 4
29.295364 21.485187 4
34.328546 19.716208 4
35.93731 23.999474 4
36.073178 27.382718 4
31.418162 20.958551 4
34.115723 23.355823 4
29.334759 29.865804 4
29.367254 33.48252 4
38.169337 -12.669734 4
29.861031 -2.7989295 4
28.92955 3.7176856 4
37.415836 5.7173733 4
35.686662 6.4819919 4
39.841789 5.8156489 4
35.335783 5.7350471 4
30.99123 8.8960132 4
36.063315 11.394843 4
32.078459 10.504174 4
35.181269 14.719882 4
32.689523 13.593653 4
34.450547 18.641148 4
31.420211 14.243062 4
37.879193 21.436147 4
37.042892 21.56014 4
34.647075 18.949744 4
33.479332 22.054747 4
33.367969 23.570382 4
34.158295 21.361235 4
33.673493 25.493693 4
34.191028 24.633648 4
29.961459 32.121362 4
29.536804 38.767821 4
40.482165 38.416203 4
33.623858 -3.9028035 4
34.093509 1.648365 4
32.609168 1.5045625 4
29.320418 5.2624793 4
32.993765 4.016407 4
35.169622 -1.3463302 4
37.156798 7.5607665 4
38.828189 10.804285 4
39.116044 9.6103976 4
32.008102 9.9901152 4
38.201843 8.6061044 4
33.514949 14.095248 4
34.050666 16.027395 4
31.861685 15.300695 4
33.3228 16.131847 4
49.809484 15.568945 4
35.200854 24.730279 4
34.491053 23.938243 4
34.014352 22.659592 4
40.0512 30.635305 4
35.674255 30.08873 4
35.291272 27.028708 4
36.438947 28.455275 4
33.700644 36.093498 4
33.204827 38.498122 4
34.715782 -7.366117 4
33.693913 -0.62721266 4
35.91504 3.6727443 4
33.73365 4.3726373 4
30.850676 1.8617242 4
38.710319 6.2837913 4
34.099668 6.6832486 4
36.382024 8.0123831 4
34.391367 6.058422 4
33.778729 6.5812382 4
38.56307 9.876393 4
36.103714 13.050264 4
30.463124 14.162053 4
37.28953 14.035727 4
39.37567 18.511011 4
36.882146 14.282831 4
38.454971 19.352984 4
36.669231 17.640394 4
35.871998 17.566235 4
36.600626 22.085576 4
37.006526 24.096301 4
33.668182 23.229225 4
33.971182 25.551388 4
38.648571 34.317193 4
34.030696 35.440487 4
37.297745 0.88900197 4
34.184553 -10.046243 4
35.15783 0.78878731 4
34.055236 2.0395358 4
34.39648 2.9355593 4
35.706888 5.6306829 4
34.763002 4.5859439 4
31.550923 6.8644323 4
36.615686 14.91598 4
36.828514 7.7472856 4
34.160482 16.334819 4
35.612541 12.492511 4
39.393638 15.894841 4
35.348491 16.867708 4
34.168364 18.026459 4
32.594223 19.031416 4
35.349269 17.770841 4
37.746326 20.93593 4
36.017627 23.346195 4
34.991683 26.345162 4
34.061082 26.276795 4
32.679136 29.557805 4
37.419428 21.295112 4
34.269042 33.799497 4
37.442873 31.676708 4
33.705503 -0.25613068 4
37.124431 -0.70764359 4
33.113038 2.0881235 4
31.357897 4.9903843 4
35.101977 4.4638715 4
38.27601 9.2776466 4
35.871946 12.0965 4
37.585829 12.831486 4
36.471586 9.9948175 4
38.69069 14.554377 4
36.180763 16.318582 4
37.633272 16.769244 4
35.151023 19.284103 4
38.941964 19.47099 4
34.509847 17.305181 4
39.50854 16.965208 4
36.792831 18.622105 4
35.845171 18.01085 4
38.882196 14.847956 4
38.351047 19.631721 4
37.144089 20.558935 4
37.795215 29.11918 4
38.264874 33.083881 4
32.485786 26.32529 4
30.144504 32.284773 4
38.189361 -0.41220039 4
36.436666 2.5614397 4
33.805722 -1.2114543 4
36.952937 3.817803 4
34.779557 5.5573319 4
35.711349 7.5540351 4
40.66013 10.454949 4
36.367621 5.3505998 4
34.557218 7.7467275 4
36.488965 12.689756 4
32.722829 16.88839 4
36.515914 10.397927 4
35.696217 12.822322 4
37.018051 18.878347 4
37.55218 17.518267 4
36.868607 15.440582 4
35.102701 17.240248 4
35.639498 21.332251 4
37.695724 20.274001 4
34.790513 25.252995 4
35.099577 25.442183 4
35.242536 25.184607 4
36.399126 25.233682 4
30.897801 33.299065 4
33.969737 29.940463 4
35.735544 -0.23926226 4
37.861099 1.6110814 4
35.890881 3.3616495 4
36.795752 2.547856 4
38.363624 4.9594029 4
36.540611 6.3192473 4
37.548113 7.9500343 4
36.971065 10.368412 4
35.579015 10.377605 4
37.763002 13.793084 4
37.196054 15.549465 4
37.743294 15.051843 4
38.394527 14.078431 4
36.630633 18.004658 4
34.608421 17.692663 4
38.336248 23.199966 4
36.904126 19.857082 4
36.411551 20.51747 4
37.262011 22.246898 4
39.966341 21.808798 4
37.627356 24.265371 4
37.158125 23.300216 4
35.886137 28.032451 4
36.20225 24.549485 4
36.538363 31.319706 4
35.932724 -2.0566072 4
[...]
POINT_DATA 1250
SCALARS m double
LOOKUP_TABLE default
1
1
1
1
1
1
1
1
1
1
1
1
1
1
1
1
1
1
1
1
1
1
1
1
1
1
1
1
1
1
1
1
1
1
1
1
1
1
1
1
1
1
1
1
1
1
1
1
1
1
1
1
1
1
1
1
1
1
1
1
1
1
1
1
1
1
1
1
1
1
1
1
1
1
1
1
1
1
1
1
1
1
1
1
1
1
1
1
1
1
1
1
1
1
1
1
1
1
1
1
1
1
1
1
1
1
1
1
1
1
1
1
1
1
1
1
1
1
1
1
1
1
1
1
1
1
1
1
1
1
1
1
1
1
1
1
1
1
1
1
1
1
1
1
1
1
1
1
1
1
1
1
1
1
1
1
1
1
1
1
1
1
1
1
1
1
1
1
1
1
1
1
1
1
1
1
1
1
1
1
1
1
1
1
1
1
1
1
1
1
1
1
1
1
1
1
1
1
1
1
1
1
1
1
1
1
1
1
1
1
1
1
1
1
1
1
1
1
1
1
1
1
1
1
1
1
1
1
1
1
1
1
1
1
1
1
1
1
1
1
1
1
1
1
1
1
1
1
1
1
1
1
1
1
1
1
1
1
1
1
1
1
1
1
1
1
1
1
1
1
1
1
1
1
1
1
1
1
1
1
1
1
1
1
1
1
1
1
1
1
1
1
1
1
1
1
1
1
1
1
1
1
1
1
1
1
1
1
1
1
1
1
1
1
1
1
1
1
1
1
1
1
1
1
1
1
1
1
1
1
1
1
1
1
1
1
1
1
1
1
1
1
1
1
1
1
1
1
1
1
1
1
1
1
1
1
1
1
1
1
1
1
1
1
1
1
1
1
1
1
1
1
1
1
1
1
1
1
1
1
1
1
1
1
1
1
1
1
1
1
1
1
1
1
1
1
1
1
1
1
1
1
1
1
1
1
1
1
1
1
1
1
1
1
1
1
1
1
1
1
1
1
1
1
1
1
1
1
1
1
1
1
1
1
1
1
1
1
1
1
1
1
1
1
1
1
1
1
1
1
1
1
1
1
1
1
1
1
1
1
1
1
1
1
1
1
1
1
1
1
1
1
1
1
1
1
1
1
1
1
1
1
1
1
1
1
1
1
1
1
1
1
1
1
1
1
1
1
1
1
1
1
1
1
1
1
1
1
1
1
1
1
1
1
1
1
1
1
1
1
1
1
1
1
1
1
1
1
1
1
1
1
1
1
1
1
1
1
1
1
1
1
1
1
1
1
1
1
1
1
1
1
1
1
1
1
1
1
1
1
1
1
1
1
1
1
1
1
1
1
1
1
1
1
1
1
1
1
1
1
1
1
1
1
1
1
1
1
1
1
1
1
1
1
1
1
1
1
1
1
1
1
1
1
1
1
1
1
1
1
1
1
1
1
1
1
1
1
1
1
1
1
1
1
1
1
1
1
1
1
1
1
1
1
1
1
1
1
1
1
1
1
1
1
1
1
1
1
1
1
1
1
1
1
1
1
1
1
1
1
1
1
1
1
1
1
1
1
1
1
1
1
1
1
1
1
1
1
1
1
1
1
1
1
1
1
1
1
1
1
1
1
1
1
1
1
1
1
1
1
1
1
1
1
1
1
1
1
1
1
1
1
1
1
1
1
1
1
1
1
1
1
1
1
1
1
1
1
1
1
1
1
1
1
1
1
1
1
1
1
1
1
1
1
1
1
1
1
1
1
1
1
1
1
1
1
1
1
1
1
1
1
1
1
1
1
1
1
1
1
1
1
1
1
1
1
1
1
1
1
1
1
1
1
1
1
1
1
1
1
1
1
1
1
1
1
1
1
1
1
1
1
1
1
1
1
1
1
1
1
1
1
1
1
1
1
1
1
1
1
1
1
1
1
1
1
1
1
1
1
1
1
1
1
1
1
1
1
1
1
1
1
1
1
1
1
1
1
1
1
1
1
1
1
1
1
1
1
1
1
1
1
1
1
1
1
1
1
1
1
1
1
1
1
1
1
1
1
1
1
1
1
1
1
1
1
1
1
1
1
1
1
1
1
1
1
1
1
1
1
1
1
1
1
1
1
1
1
1
1
1
1
1
1
1
1
1
1
1
1
1
1
1
1
1
1
1
1
1
1
1
1
1
1
1
1
1
1
1
1
1
1
1
1
1
1
1
1
1
1
1
1
1
1
1
1
1
1
1
1
1
1
1
1
1
1
1
1
1
1
1
1
1
1
1
1
1
1
1
1
1
1
1
1
1
1
1
1
1
1
1
1
1
1
1
1
1
1
1
1
1
1
1
1
1
1
1
1
1
1
1
1
1
1
1
1
1
1
1
1
1
1
1
1
1
1
1
1
1
1
1
1
1
1
1
1
1
1
1
1
1
1
1
1
1
1
1
1
1
1
1
1
1
1
1
1
1
1
1
1
1
1
1
1
1
1
1
1
1
1
1
1
1
1
1
1
1
1
1
1
1
1
1
1
1
1
1
1
1
1
1
1
1
1
1
1
1
1
1
1
1
1
1
1
1
1
1
1
1
1
1
1
1
1
1
1
1
1
1
1
1
1
1
1
1
1
1
1
1
1
1
1
1
1
1
1
1
1
1
1
1
1
1
1
1
1
1
1
1
1
1
1
1
1
1
1
1
1
1
1
1
1
1
1
1
1
1
1
1
1
1
1
1
1
1
1
1
1
1
1
1
1
1
1
1
1
1
1
1
1
1
1
1
1
1
1
1
1
1
1
1
1
1
1
1
1
1
1
1
1
1
1
1
1
1
1
1
1
1
1
1
1
1
1
1
1
1
1
1
1
1
1
1
1
1
1
1
1
1
1
1
1
1
1
1
1
1
1
1
1
VECTORS v double
1.6616707 -8.8870401 0
3.6571088 -10.04945 0
-1.2565925 -16.3394 0
-5.6876775 -3.2564941 0
11.111175 7.3694664 0
-0.69486113 4.4737543 0
3.0636906 -23.465244 0
1.4001012 -19.846139 0
-2.009843 1.8582549 0
-8.0125983 -4.2457757 0
-1.4816513 0.91061623 0
20.230878 11.781352 0
9.9637696 -2.1509919 0
-1.505011 -9.3420917 0
4.7252582 6.6135638 0
5.7873967 -8.0809713 0
5.4733002 5.6937596 0
-8.3883504 -7.7780071 0
-2.4296387 -6.8668218 0
-4.6765479 0.84126687 0
-10.295966 16.832939 0
-1.36224 15.864803 0
11.090467 1.0249147 0
0.20850979 22.962117 0
1.7589165 11.108985 0
8.8399697 -9.0826405 0
-0.24289714 -9.6530415 0
-8.9186864 -14.331151 0
-0.41821782 -1.5478296 0
-2.2974884 5.6570043 0
-3.1980687 0.92049277 0
-7.5967081 -7.118707 0
21.17777 -33.964534 0
1.0395309 -4.2523917 0
4.044399 -14.062063 0
-16.851606 -2.2795911 0
9.9697748 -13.851398 0
13.242391 -10.458264 0
-3.7047377 -11.705668 0
1.0069564 -3.3640977 0
7.7687542 8.5388257 0
2.0188801 -1.1161417 0
-0.88511446 1.8543567 0
0.54623596 2.8101994 0
0.84222288 5.6669546 0
14.525595 9.7009004 0
-16.561171 3.9812854 0
8.5524718 1.3660185 0
1.4688855 13.663971 0
-1.6338685 3.7038746 0
3.2437428 -9.8909315 0
3.1086717 -15.900932 0
-2.3711514 -4.8671204 0
3.9888634 -9.6725377 0
10.755229 -12.55148 0
10.970538 -6.7272415 0
3.7260789 -12.728062 0
2.9361419 1.9645115 0
-4.1620456 -9.9624123 0
10.626625 -5.5175961 0
1.5635075 -5.2890904 0
-6.4230672 1.1169157 0
-6.0698946 -9.0021565 0
-1.2644556 -5.4563793 0
-5.5195364 3.3198211 0
-2.1369491 10.387102 0
-6.5275032 -4.6863731 0
2.3274696 1.0265267 0
1.9568879 -2.4086571 0
5.8960485 4.8507839 0
-6.1783673 -2.9405895 0
-2.9586539 9.0757584 0
-6.5356531 9.8067142 0
-3.4547241 7.6871086 0
7.4211302 -1.355525 0
3.9466542 -13.879275 0
-3.3149513 -4.9460099 0
-2.5369812 4.5438056 0
5.116714 -14.873849 0
2.7756789 -1.812017 0
-9.5716602 -4.020217 0
3.840835 -2.1366312 0
3.4294956 -4.9822622 0
-0.58949511 -7.559845 0
22.592662 -2.9334761 0
-9.6946526 1.3122519 0
-6.7705926 -6.8375247 0
-7.7734621 9.9464429 0
6.141065 -9.9760905 0
3.509475 -17.263118 0
14.946547 -13.628733 0
0.53631729 -10.052645 0
4.5952322 -5.4752157 0
3.9295307 -0.42267201 0
-5.0932056 9.7675316 0
4.6990114 -6.9205311 0
-0.35939485 12.971987 0
5.2160565 2.7328291 0
-1.787577 8.3387129 0
0.47111082 14.49498 0
3.3724325 -12.746329 0
-5.5576509 -14.754941 0
-1.6918723 -13.407932 0
1.8981929 -3.7770067 0
-8.0789635 -8.7683061 0
0.6354146 -4.4335794 0
-1.1991384 -2.164345 0
3.0899479 6.3411816 0
1.6904009 -7.2167043 0
-1.8218615 3.2136116 0
-0.82162061 -1.7635514 0
-2.8110588 -11.269137 0
-16.88299 0.72860658 0
-5.9709828 -15.115109 0
-8.6205197 10.252145 0
-1.7453663 6.0771763 0
4.6121321 -13.621083 0
2.413918 -10.954515 0
6.6453695 -0.97992349 0
-0.63763267 10.673343 0
-4.0325044 3.1688081 0
2.4538036 8.6481102 0
0.27533373 -6.0189264 0
-2.57362 9.4678395 0
10.074843 9.3203435 0
-2.3605848 -9.0027057 0
0.086176552 -22.49453 0
26.402649 -5.9630617 0
-6.2680573 -4.3910922 0
1.5524423 0.054240432 0
-1.8731194 5.4104037 0
14.585657 3.2336081 0
-6.161109 -6.378648 0
-3.1553678 10.763064 0
11.678509 9.0647464 0
2.3102294 -0.91363026 0
-16.859184 0.61714386 0
4.6494674 7.8465725 0
1.9288546 -4.5482159 0
10.622621 -4.9041991 0
-1.7473089 1.5113936 0
-6.5378221 11.314888 0
2.120917 -6.4362961 0
1.581991 -4.95669 0
-0.97729281 10.661076 0
6.9333482 7.1504582 0
4.482779 -0.86000687 0
-6.2672749 2.1620183 0
2.7835456 9.3004248 0
0.58766281 13.14553 0
-4.1064968 9.8847713 0
-7.1221573 -15.01762 0
-6.2506002 -14.133713 0
2.7840651 -11.766809 0
-1.0452742 -7.9082023 0
-4.6467075 3.1896346 0
2.2109231 8.3859284 0
3.1965698 -2.566561 0
4.1240439 7.7489939 0
3.6168733 -0.51231256 0
6.3635742 -1.6424223 0
0.088076615 6.4122085 0
-0.75799497 -1.3586156 0
-22.180878 2.7383863 0
-11.363327 -12.197907 0
-1.2718171 -1.6337466 0
-7.8978054 0.53054905 0
-3.1726321 11.081292 0
-2.0740465 11.144034 0
-2.3900886 15.03389 0
5.0934546 9.9100256 0
4.1111758 13.936144 0
-6.0838626 15.87924 0
9.8998211 4.6498417 0
-2.283735 10.291016 0
7.9152496 -6.5258364 0
4.0986005 -8.5307034 0
0.10045284 -13.988775 0
3.2193798 -13.412925 0
3.7367951 -5.0614616 0
-4.6984802 -16.489766 0
10.308899 0.099454287 0
-12.044925 -5.4751476 0
-8.5641839 -9.4032533 0
-6.5368254 -21.502783 0
3.7284138 -9.4321996 0
-6.6958965 0.14748103 0
-3.1118741 5.7500276 0
3.4851026 -5.952383 0
0.60344836 -1.8008192 0
-11.465668 4.4739287 0
0.89024914 -1.9235791 0
3.484367 6.7225185 0
5.9191641 -2.5756748 0
6.7276446 -4.0565566 0
-3.7256714 -13.795439 0
-7.8391622 10.758883 0
4.3093366 9.9764888 0
-6.4614777 -0.53084963 0
6.2745355 8.8214531 0
-11.958648 -12.958989 0
-5.6827544 -1.3632943 0
2.59884 -6.2518312 0
6.0362367 -18.659993 0
7.9167815 -19.723334 0
-4.7585012 -0.94558338 0
-0.86529809 -6.920783 0
-3.351468 -7.8071617 0
-7.3121065 2.4437696 0
-5.2688633 -12.295855 0
-9.0266795 1.0836745 0
-6.1473758 7.5311141 0
0.28149985 7.4324023 0
-11.51509 -0.10104415 0
11.570238 8.2058695 0
-6.8960549 -8.9763167 0
2.713736 -4.153306 0
4.7556103 -13.924771 0
-5.150609 -6.2017337 0
-0.74148923 1.001017 0
9.4905365 5.2095397 0
3.9072878 3.6931853 0
-9.4596795 -1.4217582 0
6.3025232 7.0171652 0
2.5971169 12.454347 0
-8.9945634 -12.21213 0
-9.9782207 -15.061605 0
3.8622312 -18.094251 0
0.63186845 4.5633561 0
-12.23806 -8.4818846 0
-2.6320769 -6.1962359 0
0.47085151 1.1329669 0
4.8012965 3.0783293 0
0.14394033 6.8161093 0
5.4843744 -14.536409 0
-2.4320117 -4.9939514 0
-16.676728 -6.9356473 0
-11.400578 9.4658908 0
8.1884512 -4.3301336 0
5.4519336 7.0275838 0
-3.5713739 -3.6626976 0
-7.5016831 12.776014 0
-11.635032 5.9995357 0
2.9830138 -2.7897983 0
-4.5658331 6.6786996 0
-0.82632815 -3.525544 0
-13.711742 -4.5668237 0
4.1553153 11.18932 0
5.6948378 7.7029147 0
-5.9266391 10.851643 0
-1.3752222 -9.9717684 0
-1.523277 -9.2755862 0
4.2745072 -5.6829178 0
-11.543883 -2.7322907 0
4.9597754 0.0022444256 0
12.879836 -3.7842955 0
15.484609 8.7211897 0
-1.1916714 -0.2392294 0
-6.423941 -1.6863536 0
-1.4422991 0.9011094 0
-0.49752299 14.24818 0
-6.9594635 5.9561215 0
-13.680467 -6.6856262 0
5.877407 2.4586183 0
5.865097 7.2710685 0
11.037102 -3.7321287 0
2.086278 -0.99058823 0
-12.613529 4.4704455 0
3.1161801 -4.8499504 0
-7.3859092 8.0729215 0
-4.9746729 2.3906174 0
0.92870262 0.43094113 0
-5.0058681 0.97674402 0
4.9328398 6.2121554 0
0.54855767 0.98174218 0
0.83133422 -12.772029 0
12.04463 -17.153745 0
-10.301576 -10.072545 0
-2.3864383 5.3963093 0
6.360409 3.9280178 0
-9.5392807 0.7158655 0
-1.5570622 -3.7671754 0
-6.7675831 -4.6735945 0
-5.8021369 5.1981281 0
5.1521315 -10.83525 0
3.0848277 7.2180989 0
1.3922599 2.7386939 0
-8.0472708 3.266799 0
1.7702925 2.5744379 0
-1.5616027 -6.8766944 0
7.4817794 4.1509808 0
6.7294179 -8.1367261 0
0.53059204 5.3433925 0
11.425412 17.896318 0
3.1158276 16.435927 0
-1.9299068 2.3418531 0
-10.027618 1.0635003 0
-3.4056178 3.642981 0
-7.4196619 21.98198 0
3.3742082 9.8830454 0
-0.859145 -7.6192636 0
-2.9226784 -10.678564 0
-9.713533 -1.92377 0
-5.5823935 -1.5466796 0
-11.443079 -6.6345565 0
-6.2809928 -6.3265488 0
5.6120115 -2.3755792 0
-4.4916589 9.2661808 0
-0.4217363 -3.9897915 0
6.5368875 -3.1155512 0
13.732247 -10.57276 0
0.38572119 12.543935 0
-12.95191 1.5008432 0
-4.3808617 2.2824993 0
-5.0827959 0.0076499065 0
11.979384 -7.2830737 0
6.0631167 10.434731 0
-3.2056731 4.868276 0
8.3212079 2.3578047 0
15.697075 5.9560875 0
-0.55283231 5.0727929 0
-13.62102 8.8134513 0
-6.3313863 2.1069372 0
-4.5692378 9.5492482 0
4.6979978 19.014763 0
0.34320221 -14.635215 0
3.8010767 -4.2447604 0
-12.597466 2.2773316 0
0.89734857 -7.2508523 0
-1.9227884 4.5096019 0
1.9623579 -11.675477 0
1.353124 8.8134298 0
-4.5695303 -9.0504996 0
2.8958044 -3.0235178 0
-3.7727631 -8.9642118 0
5.9944449 -4.6667508 0
7.3555258 3.9985108 0
-14.30215 -9.7825186 0
-1.4051303 -6.3850718 0
7.3014839 -1.8177971 0
-6.8841873 21.468954 0
-4.8343864 19.755701 0
4.2884216 -1.3253265 0
-6.3478083 -5.2596817 0
3.9617472 -6.640678 0
9.5598707 -2.6553952 0
-5.9602134 -1.9619148 0
-6.2533355 4.7725386 0
0.92480657 11.821561 0
-2.9872812 14.127933 0
1.0981839 -13.944312 0
-3.0935311 -22.695668 0
-15.445641 -9.8383774 0
4.1688355 0.28491467 0
4.7143216 -10.937322 0
-7.8770985 -8.5639653 0
-1.9716217 1.3437003 0
-13.237802 -3.720206 0
1.6033315 8.1971738 0
4.2860442 -0.16540988 0
-1.0630535 -0.38333934 0
3.6187861 0.45726742 0
4.4124913 -0.1920067 0
0.51901476 5.00773 0
-4.039071 -8.5790473 0
-8.0591098 -3.3479799 0
-11.792906 -9.347122 0
-0.21042083 5.4057346 0
2.0838306 9.2178301 0
-3.2621622 7.5040636 0
-15.875336 9.4689292 0
5.5254822 -2.3714454 0
-1.6228976 -8.7171336 0
-4.0322921 9.2131514 0
-1.2689247 11.298692 0
-4.7206634 -4.010885 0
4.6822853 -0.88290196 0
-3.21197 6.1155239 0
-8.8558489 -6.5508348 0
-1.8078001 -3.0194577 0
3.3455867 1.5607637 0
16.356182 9.9792975 0
-2.2393923 7.2844362 0
-8.4770361 4.7125986 0
-8.0310375 -12.537655 0
8.13656 0.75432255 0
-0.75975074 5.6891067 0
-5.8425909 2.0013694 0
5.1157916 1.4840551 0
-15.711887 -5.910819 0
-13.648401 -8.3985398 0
12.577876 18.501372 0
-6.3799088 -1.9388872 0
-1.8156401 -1.5899672 0
-11.62742 5.7611733 0
0.83715235 1.5108719 0
-1.0587983 4.1948394 0
-0.28270771 12.871913 0
0.74542557 -8.0567809 0
-2.4768069 9.3423877 0
8.0633071 -6.6514606 0
-4.9882911 2.9804173 0
1.3077685 0.40051864 0
-2.4805495 3.5801022 0
-3.6597349 0.20332757 0
-14.151331 -3.8795008 0
1.5777937 -1.461921 0
1.053394 -6.6222066 0
-2.4941865 -3.7715075 0
-4.8984424 7.7036581 0
1.5588897 -5.8151181 0
-0.53927574 -2.4025158 0
5.2077027 -4.8626434 0
4.1076616 4.7852019 0
0.84279496 3.3493136 0
3.217812 -4.2494888 0
-3.4872086 -2.1099463 0
0.22673615 8.0538771 0
-3.0946254 -5.2769823 0
-5.2832668 18.149065 0
-4.6914765 3.5434575 0
0.53251786 4.1504026 0
-3.4439221 -0.24192436 0
-9.4077558 10.617344 0
7.6940494 1.9658213 0
-13.38845 -11.181271 0
1.8907556 2.5095228 0
-3.8255132 9.0704911 0
3.3365973 -8.2868702 0
3.4869639 -3.2733507 0
-0.97661008 6.3998489 0
-3.1087904 5.5631082 0
-3.9189667 2.6823187 0
-8.8918355 -10.348662 0
-9.4255333 3.4672311 0
4.6616153 9.8420219 0
-1.0345803 -2.1012654 0
-11.23057 -8.1640422 0
-9.2264973 -0.69986819 0
-0.79473889 -9.7298784 0
-10.147378 5.6140683 0
-0.19572335 1.0862814 0
-7.35469 -0.47201514 0
0.29005637 0.30265856 0
-3.3175649 -7.0060988 0
1.1531578 2.2756705 0
-4.3406433 5.3853009 0
2.3564601 11.9865 0
-16.206388 6.8463103 0
-6.1981529 5.3373155 0
-5.7567321 -8.9725716 0
-3.5611682 -2.1019649 0
-0.51848292 -4.9404416 0
0.35195344 -0.75675743 0
-3.8261324 2.6079317 0
-0.93932492 3.1857247 0
0.094921047 -7.6603563 0
-4.5567541 -3.3640915 0
-5.938874 1.1118972 0
2.9687901 -0.16108436 0
-4.5989504 3.1554449 0
11.640548 9.8722106 0
6.7398301 -2.8321451 0
5.8647479 5.1939423 0
6.3792201 0.19752044 0
-8.8352531 -4.4288187 0
2.2988395 -1.2729258 0
0.63707629 6.6351338 0
-6.5823199 0.22200702 0
9.1576916 3.7547037 0
-8.562856 2.2821647 0
0.70972707 -5.7515113 0
-6.1764101 -2.1406847 0
-6.3777216 -1.6115801 0
-1.3040524 10.896763 0
5.4169217 -11.866099 0
1.8594684 -8.0961017 0
-0.34046472 2.0142644 0
1.9644257 -2.8793942 0
-6.5423251 2.1650991 0
0.70149516 -12.941321 0
-8.8862492 1.5903562 0
10.616794 6.5505922 0
-7.0355427 -3.3509212 0
2.8367926 -17.232428 0
4.3935229 -5.0326276 0
-3.3363235 -1.570194 0
-5.7435519 17.055773 0
-2.5660099 -2.5080081 0
2.1203882 0.05380985 0
1.4189114 -3.1702789 0
-8.5927383 -9.2947107 0
3.1829107 -9.9020966 0
-3.0996422 4.0846722 0
-8.9502976 -0.20068309 0
-8.6963437 4.0445377 0
-9.799814 0.012469628 0
-0.82687519 2.5573131 0
-4.4672107 3.8163148 0
-2.2416485 9.6845956 0
-2.0205133 -6.671435 0
1.4645316 4.4599144 0
-6.7344986 -7.5857026 0
-6.212028 -3.1081923 0
3.8576505 -0.73142081 0
-5.0439294 0.28392736 0
-7.9108082 -3.2003421 0
-3.7895055 -4.173342 0
3.0565489 -4.8001801 0
0.27162115 9.2733011 0
9.3219707 -7.4450243 0
-0.44524073 9.9182888 0
-3.1120966 11.217265 0
4.3181763 26.095073 0
7.4823295 -3.3526613 0
-3.7548529 0.39815764 0
4.9050147 3.210605 0
-3.9132551 6.9836031 0
-5.4278247 0.92966901 0
4.5238892 4.00189 0
-2.3622759 8.8284303 0
-0.11736011 -5.3214158 0
-5.923277 0.59406825 0
-3.9487839 10.547983 0
-2.2480788 6.5308597 0
-8.7628888 2.2111947 0
-10.041708 0.11850436 0
-9.9823124 0.031816412 0
-9.4316819 0.68053504 0
2.7589267 1.5462893 0
-9.010866 2.8731443 0
-5.8943781 -1.4455136 0
-8.9726585 -3.612158 0
-5.7655669 -22.619806 0
-10.058435 0.65921297 0
-2.9771377 1.3229034 0
2.4206152 2.1678821 0
3.9954277 0.044547372 0
9.4058694 5.0262033 0
-13.646122 1.750435 0
-0.25453933 -2.2804826 0
9.3957431 -11.581529 0
-5.9796176 -1.8661271 0
-7.3874569 -5.7876898 0
1.6954677 20.830327 0
-9.9371574 -0.03784527 0
-11.949788 1.0277387 0
3.0460681 3.4963976 0
-10.374531 4.4310496 0
-9.7421186 1.1428308 0
-6.6926473 -8.6001291 0
-10.00211 -0.0010971425 0
5.3962283 -11.106729 0
-10.006508 0.063892813 0
-12.702642 -7.6233989 0
-8.1198359 -4.2726491 0
-6.5424597 1.2401691 0
-5.792557 5.3368879 0
7.8371911 -8.5282733 0
-9.9416841 -0.37281207 0
-11.785139 4.1189523 0
-3.1836015 10.131364 0
-4.379961 -2.5971414 0
5.5009281 5.0059381 0
-7.0881517 7.4664964 0
-7.5012573 -0.71848569 0
2.620788 12.540476 0
-6.1656203 7.3010017 0
3.0323986 -4.2351346 0
6.1829472 13.288763 0
-10.698982 -0.38086826 0
-10.844551 1.1396126 0
-9.9954608 0.041583081 0
-9.9877238 0.017247223 0
-10.01019 -0.057138814 0
-9.9991328 0.015432823 0
-9.9997514 -0.00019127942 0
-10.000388 -0.0001078992 0
-9.9986082 0.065425034 0
6.5887019 0.032639764 0
-0.73460427 4.2682931 0
-10.006851 0.0025364937 0
9.1375908 -14.023369 0
-2.3219662 12.124027 0
3.9621945 1.3601628 0
-9.5253137 -0.61998438 0
13.257277 4.8593559 0
-8.291889 -5.4352365 0
-9.0628785 3.7611516 0
13.989536 -9.6450059 0
3.083243 8.4865931 0
-3.45855 4.7147447 0
-7.8353669 4.8101328 0
-10.010645 0.0091810844 0
-15.992391 -1.9752277 0
-9.9078169 -0.15508822 0
-10.004385 0.0059905831 0
-4.6165019 3.7100592 0
-10.216898 -1.2335653 0
-10.00026 -0.018589861 0
-10.013792 0.014548293 0
-10.015307 -0.00014093047 0
-10.25377 -13.560763 0
-9.7508946 0.020288359 0
-10.020618 -0.0081353009 0
-10.076872 0.0992627 0
-10.036377 0.017104944 0
-9.8766771 -1.4748669 0
-10.017309 0.030629111 0
-10.069423 0.038634403 0
-1.5454559 -4.5662477 0
11.849673 -8.3249663 0
6.1833208 -0.078469942 0
2.2195943 -2.8492748 0
-10.063818 -0.35337564 0
-2.1721271 -3.160597 0
-10.017518 -0.022862318 0
-6.6280164 -4.8814929 0
-0.74238554 0.29192349 0
-10.036037 -0.051726791 0
-9.5352868 -0.61414684 0
-10.015465 -0.0015498462 0
-10.030031 0.01400005 0
-3.3294795 -8.1340044 0
-10.012578 -0.022635965 0
9.3664052 -3.8409628 0
10.637084 1.6291789 0
10.137872 -19.377204 0
6.7966271 -11.331686 0
1.4142485 -5.7943659 0
5.0006883 -5.1942591 0
0.31429683 2.743721 0
7.0327944 -2.4936983 0
11.144786 9.1672917 0
-1.3135399 -4.0161387 0
-6.6145328 -4.7882206 0
-5.8088449 4.4291122 0
-1.1073234 0.35144872 0
-1.8957656 1.8550076 0
-2.9604034 -3.1185865 0
-1.4433921 -0.15525449 0
2.1598738 1.5501362 0
14.922675 0.20016049 0
-6.1440459 14.928471 0
-1.3766901 5.534278 0
-10.760224 10.969825 0
3.3209475 8.3934178 0
619808.48 -383949.33 0
-2.6282259 22.954801 0
-4.4982739 10.081826 0
-1.2980768 -13.925413 0
-1.6389821 -0.26972473 0
3.2293944 3.0456958 0
0.72252805 -25.572507 0
-4.3288775 -1.149452 0
-5.4093147 -13.43506 0
7.9278219 -5.5425196 0
4.0647468 -3.8737127 0
-4.3215971 -3.0284647 0
-9.5576982 7.9797531 0
1.8534479 4.3605897 0
-3.3935361 -14.314073 0
5.0168533 -1.2122508 0
-4.8571092 -8.5330833 0
9.2425534 9.4939975 0
0.37070174 3.6421846 0
-3.4703796 1.6476999 0
1.3100793 1.2833903 0
6.2151611 11.464924 0
-7.5289212 12.438764 0
-3.1391166 11.886963 0
-7.1656013 4.578878 0
1.7802371 -0.71714694 0
-7.0010248 1.5361601 0
-0.11997117 9.3396338 0
8.2354328 -6.0208492 0
-1.2616387 -7.8309919 0
2.2907713 -7.325538 0
2.1213195 -3.3802638 0
7.4936636 -2.8002794 0
-0.84057119 5.9178445 0
8.0648595 -9.3163078 0
11.44946 -2.7697061 0
-1.5922408 0.11654182 0
0.47163953 -12.934696 0
17.427883 -2.547691 0
5.5793724 8.815622 0
-0.042561062 3.2742951 0
9.5555149 -1.2925196 0
11.739621 0.46186567 0
5.7921137 7.4955351 0
7.1466275 1.982316 0
2.9692279 9.5241288 0
11.023462 -4.9010549 0
-6.3612472 1.4596415 0
-2.5454114 9.8356301 0
-2.2707873 11.571405 0
-0.60388748 10.031575 0
-6.5625126 10.535142 0
-2.5837551 -0.72307276 0
-6.5485731 -6.7367893 0
-1.9603584 -10.561249 0
-5.878459 -7.9641232 0
2.5241063 3.9069383 0
-5.5473875 4.2251749 0
-0.95688704 -1.3899549 0
-0.98727493 3.6733806 0
3.3312131 -14.372456 0
-2.9419417 -4.6691653 0
-8.153033 -4.0241707 0
3.8137149 4.8015414 0
8.9047897 -10.146949 0
-7.9731484 1.5287975 0
6.8627136 7.1107378 0
1.7260798 -4.0194765 0
-1.8176795 0.60498869 0
-18.793723 -15.177733 0
6.1064529 -7.9446905 0
12.29857 -5.6569481 0
2.7424894 16.439806 0
-0.85214203 -3.1693653 0
-4.6595342 8.1363765 0
6.4631142 12.355251 0
-1.5643348 -12.648837 0
7.0375681 8.2927793 0
8.5091109 -8.6848185 0
-1.3014264 -19.660726 0
-4.9133905 7.4803436 0
14.453314 -17.643595 0
10.808835 -21.668129 0
1.1463132 -4.1766208 0
-4.3354866 -6.4203822 0
-3.9915924 -3.8533367 0
7.1653029 -1.640418 0
9.2164028 -11.215963 0
2.5861004 -2.3754079 0
-10.780321 1.2109887 0
0.78825735 11.058137 0
-4.9401413 -6.8133283 0
-616227.85 387734.05 0
10.694258 9.6674239 0
6.1014593 6.4462865 0
5.4120577 11.39197 0
-0.5134878 0.087967376 0
8.9438719 10.737911 0
0.48948271 11.328407 0
1.3625803 23.700905 0
-0.22974229 16.782487 0
4.4742067 16.240137 0
6.0892965 3.6151605 0
5.5388082 -15.659266 0