# vtk DataFile Version 4.0
hesp visualization file
ASCII
DATASET UNSTRUCTURED_GRID
POINTS 1250 double
30.162526 1.1320122 4
30.156278 2.2422194 4
30.144716 3.3666372 4
30.144716 4.4891209 4
30.144716 5.6115865 4
30.144716 6.7340468 4
30.144716 7.8565101 4
30.144716 8.9789707 4
30.144716 10.101433 4
30.144717 11.223896 4
30.144717 12.34636 4
30.144714 13.468806 4
30.144714 14.591269 4
30.144714 15.713725 4
30.144714 16.836187 4
30.144714 17.958849 4
30.144714 19.08131 4
30.144714 20.203775 4
30.144714 21.326237 4
30.144713 22.448652 4
30.144714 23.571114 4
30.144711 24.693576 4
30.144711 25.81603 4
30.144711 26.938456 4
30.144705 28.05915 4
31.191331 1.1041448 4
31.185225 2.2472357 4
31.181914 3.3679396 4
31.181915 4.4903231 4
31.181915 5.6127828 4
31.181915 6.7352457 4
31.181915 7.8577073 4
31.181915 8.9801699 4
31.181915 10.102632 4
31.181915 11.225094 4
31.181915 12.347555 4
31.181915 13.470024 4
31.181915 14.592485 4
31.181915 15.71495 4
31.181915 16.837412 4
31.181914 17.95979 4
31.181914 19.082252 4
31.181914 20.204713 4
31.181914 21.327175 4
31.181915 22.449659 4
31.181915 23.572121 4
31.181915 24.694583 4
31.181915 25.817048 4
31.181915 26.939565 4
31.181942 28.063914 4
31.968285 1.137451 4
31.562305 2.2435842 4
31.471311 3.3671311 4
31.471312 4.4896416 4
31.471311 5.6121047 4
31.471311 6.7345665 4
31.471311 7.8570287 4
31.471311 8.9794906 4
31.471311 10.101953 4
31.471311 11.224415 4
31.471311 12.346877 4
31.471311 13.469337 4
31.471309 14.5918 4
31.471311 15.714261 4
31.471308 16.836723 4
31.471309 17.959204 4
31.471308 19.081666 4
31.471308 20.204128 4
31.471308 21.32659 4
31.471308 22.449047 4
31.471308 23.571509 4
31.471308 24.693971 4
31.471308 25.816432 4
31.471307 26.938851 4
31.471274 28.059381 4
32.510112 1.1205713 4
32.510111 2.2453251 4
32.508527 3.3674644 4
32.508527 4.4899079 4
32.508527 5.6123697 4
32.508527 6.7348318 4
32.508527 7.8572938 4
32.508527 8.9797559 4
32.508527 10.102218 4
32.508527 11.22468 4
32.508527 12.347142 4
32.508527 13.469604 4
32.508527 14.592066 4
32.508527 15.714528 4
32.508527 16.83699 4
32.508527 17.959455 4
32.508527 19.081917 4
32.508527 20.204379 4
32.508527 21.326841 4
32.508527 22.449303 4
32.508527 23.571765 4
32.508527 24.694227 4
32.508527 25.816689 4
32.508527 26.939167 4
32.50853 28.061946 4
33.013613 1.1240192 4
33.012371 2.2447167 4
32.797656 3.3673635 4
32.797649 4.4898323 4
32.797649 5.6122945 4
32.797649 6.7347565 4
32.797649 7.8572186 4
32.797649 8.9796806 4
32.797649 10.102143 4
32.797649 11.224605 4
32.797649 12.347067 4
32.797649 13.469529 4
32.797649 14.591991 4
32.797649 15.714453 4
32.797649 16.836915 4
32.797649 17.959376 4
32.797649 19.081838 4
32.797649 20.2043 4
32.797649 21.326762 4
32.797649 22.449225 4
32.797649 23.571687 4
32.797649 24.694149 4
32.797649 25.816611 4
32.797649 26.939065 4
32.797651 28.060974 4
33.83477 1.1228333 4
33.83477 2.2449265 4
33.834772 3.3673861 4
33.834772 4.4898482 4
33.834772 5.6123102 4
33.834772 6.7347723 4
33.834772 7.8572343 4
33.834772 8.9796964 4
33.834772 10.102158 4
33.834772 11.22462 4
33.834772 12.347083 4
33.834772 13.469545 4
33.834772 14.592007 4
33.834772 15.714469 4
33.834772 16.836931 4
33.834772 17.959393 4
33.834772 19.081855 4
33.834772 20.204317 4
33.834772 21.326779 4
33.834772 22.449241 4
33.834772 23.571703 4
33.834772 24.694165 4
33.834772 25.816627 4
33.834772 26.939087 4
33.834772 28.06118 4
34.957234 1.1228332 4
34.957234 2.2449265 4
34.957234 3.3673861 4
34.957234 4.4898482 4
34.957234 5.6123102 4
34.957234 6.7347723 4
34.957234 7.8572343 4
34.957234 8.9796964 4
34.957234 10.102158 4
34.957234 11.22462 4
34.957234 12.347083 4
34.957234 13.469545 4
34.957234 14.592007 4
34.957234 15.714469 4
34.957234 16.836931 4
34.957234 17.959393 4
34.957234 19.081855 4
34.957234 20.204317 4
34.957234 21.326779 4
34.957234 22.449241 4
34.957234 23.571703 4
34.957234 24.694165 4
34.957234 25.816627 4
34.957234 26.939087 4
34.957234 28.06118 4
36.079696 1.1228332 4
36.079696 2.2449265 4
36.079696 3.3673861 4
36.079696 4.4898482 4
36.079696 5.6123102 4
36.079696 6.7347723 4
36.079696 7.8572343 4
36.079696 8.9796964 4
36.079696 10.102158 4
36.079696 11.22462 4
36.079696 12.347083 4
36.079696 13.469545 4
36.079696 14.592007 4
36.079696 15.714469 4
36.079696 16.836931 4
36.079696 17.959393 4
36.079696 19.081855 4
36.079696 20.204317 4
36.079696 21.326779 4
36.079696 22.449241 4
36.079696 23.571703 4
36.079696 24.694165 4
36.079696 25.816627 4
36.079696 26.939087 4
36.079696 28.06118 4
37.202158 1.1228332 4
37.202158 2.2449265 4
37.202158 3.3673861 4
37.202158 4.4898482 4
37.202158 5.6123102 4
37.202158 6.7347723 4
37.202158 7.8572343 4
37.202158 8.9796964 4
37.202158 10.102158 4
37.202158 11.22462 4
37.202158 12.347083 4
37.202158 13.469545 4
37.202158 14.592007 4
37.202158 15.714469 4
37.202158 16.836931 4
37.202158 17.959393 4
37.202158 19.081855 4
37.202158 20.204317 4
37.202158 21.326779 4
37.202158 22.449241 4
37.202158 23.571703 4
37.202158 24.694165 4
37.202158 25.816627 4
37.202158 26.939087 4
37.202158 28.06118 4
38.32462 1.1228332 4
38.32462 2.2449265 4
38.32462 3.3673861 4
38.32462 4.4898482 4
38.32462 5.6123102 4
38.32462 6.7347723 4
38.32462 7.8572343 4
38.32462 8.9796964 4
38.32462 10.102158 4
38.32462 11.22462 4
38.32462 12.347083 4
38.32462 13.469545 4
38.32462 14.592007 4
38.32462 15.714469 4
38.32462 16.836931 4
38.32462 17.959393 4
38.32462 19.081855 4
38.32462 20.204317 4
38.32462 21.326779 4
38.32462 22.449241 4
38.32462 23.571703 4
38.32462 24.694165 4
38.32462 25.816627 4
38.32462 26.939087 4
38.32462 28.06118 4
39.447083 1.1228332 4
39.447083 2.2449265 4
39.447083 3.3673861 4
39.447083 4.4898482 4
39.447083 5.6123102 4
39.447083 6.7347723 4
39.447083 7.8572343 4
39.447083 8.9796964 4
39.447083 10.102158 4
39.447083 11.22462 4
39.447083 12.347083 4
39.447083 13.469545 4
39.447083 14.592007 4
39.447083 15.714469 4
39.447083 16.836931 4
39.447083 17.959393 4
39.447083 19.081855 4
39.447083 20.204317 4
39.447083 21.326779 4
39.447083 22.449241 4
39.447083 23.571703 4
39.447083 24.694165 4
39.447083 25.816627 4
39.447083 26.939087 4
39.447083 28.06118 4
40.569545 1.1228332 4
40.569545 2.2449265 4
40.569545 3.3673861 4
40.569545 4.4898482 4
40.569545 5.6123102 4
40.569545 6.7347723 4
40.569545 7.8572343 4
40.569545 8.9796964 4
40.569545 10.102158 4
40.569545 11.22462 4
40.569545 12.347083 4
40.569545 13.469545 4
40.569545 14.592007 4
40.569545 15.714469 4
40.569545 16.836931 4
40.569545 17.959393 4
40.569545 19.081855 4
40.569545 20.204317 4
40.569545 21.326779 4
40.569545 22.449241 4
40.569545 23.571703 4
40.569545 24.694165 4
40.569545 25.816627 4
40.569545 26.939087 4
40.569545 28.06118 4
41.692007 1.1228332 4
41.692007 2.2449265 4
41.692007 3.3673861 4
41.692007 4.4898482 4
41.692007 5.6123102 4
41.692007 6.7347723 4
41.692007 7.8572343 4
41.692007 8.9796964 4
41.692007 10.102158 4
41.692007 11.22462 4
41.692007 12.347083 4
41.692007 13.469545 4
41.692007 14.592007 4
41.692007 15.714469 4
41.692007 16.836931 4
41.692007 17.959393 4
41.692007 19.081855 4
41.692007 20.204317 4
41.692007 21.326779 4
41.692007 22.449241 4
41.692007 23.571703 4
41.692007 24.694165 4
41.692007 25.816627 4
41.692007 26.939087 4
41.692007 28.06118 4
42.814469 1.1228332 4
42.814469 2.2449265 4
42.814469 3.3673861 4
42.814469 4.4898482 4
42.814469 5.6123102 4
42.814469 6.7347723 4
42.814469 7.8572343 4
42.814469 8.9796964 4
42.814469 10.102158 4
42.814469 11.22462 4
42.814469 12.347083 4
42.814469 13.469545 4
42.814469 14.592007 4
42.814469 15.714469 4
42.814469 16.836931 4
42.814469 17.959393 4
42.814469 19.081855 4
42.814469 20.204317 4
42.814469 21.326779 4
42.814469 22.449241 4
42.814469 23.571703 4
42.814469 24.694165 4
42.814469 25.816627 4
42.814469 26.939087 4
42.814469 28.06118 4
43.936931 1.1228332 4
43.936931 2.2449265 4
43.936931 3.3673861 4
43.936931 4.4898482 4
43.936931 5.6123102 4
43.936931 6.7347723 4
43.936931 7.8572343 4
43.936931 8.9796964 4
43.936931 10.102158 4
43.936931 11.22462 4
43.936931 12.347083 4
43.936931 13.469545 4
43.936931 14.592007 4
43.936931 15.714469 4
43.936931 16.836931 4
43.936931 17.959393 4
43.936931 19.081855 4
43.936931 20.204317 4
43.936931 21.326779 4
43.936931 22.449241 4
43.936931 23.571703 4
43.936931 24.694165 4
43.936931 25.816627 4
43.936931 26.939087 4
43.936931 28.06118 4
45.059393 1.1228332 4
45.059393 2.2449265 4
45.059393 3.3673861 4
45.059393 4.4898482 4
45.059393 5.6123102 4
45.059393 6.7347723 4
45.059393 7.8572343 4
45.059393 8.9796964 4
45.059393 10.102158 4
45.059393 11.22462 4
45.059393 12.347083 4
45.059393 13.469545 4
45.059393 14.592007 4
45.059393 15.714469 4
45.059393 16.836931 4
45.059393 17.959393 4
45.059393 19.081855 4
45.059393 20.204317 4
45.059393 21.326779 4
45.059393 22.449241 4
45.059393 23.571703 4
45.059393 24.694165 4
45.059393 25.816627 4
45.059393 26.939087 4
45.059393 28.06118 4
46.181855 1.1228332 4
46.181855 2.2449265 4
46.181855 3.3673861 4
46.181855 4.4898482 4
46.181855 5.6123102 4
46.181855 6.7347723 4
46.181855 7.8572343 4
46.181855 8.9796964 4
46.181855 10.102158 4
46.181855 11.22462 4
46.181855 12.347083 4
46.181855 13.469545 4
46.181855 14.592007 4
46.181855 15.714469 4
46.181855 16.836931 4
46.181855 17.959393 4
46.181855 19.081855 4
46.181855 20.204317 4
46.181855 21.326779 4
46.181855 22.449241 4
46.181855 23.571703 4
46.181855 24.694165 4
46.181855 25.816627 4
46.181855 26.939087 4
46.181855 28.06118 4
47.304317 1.1228332 4
47.304317 2.2449265 4
47.304317 3.3673861 4
47.304317 4.4898482 4
47.304317 5.6123102 4
47.304317 6.7347723 4
47.304317 7.8572343 4
47.304317 8.9796964 4
47.304317 10.102158 4
47.304317 11.22462 4
47.304317 12.347083 4
47.304317 13.469545 4
47.304317 14.592007 4
47.304317 15.714469 4
47.304317 16.836931 4
47.304317 17.959393 4
47.304317 19.081855 4
47.304317 20.204317 4
47.304317 21.326779 4
47.304317 22.449241 4
47.304317 23.571703 4
47.304317 24.694165 4
47.304317 25.816627 4
47.304317 26.939087 4
47.304317 28.06118 4
48.426779 1.1228332 4
48.426779 2.2449265 4
48.426779 3.3673861 4
[...]
POINT_DATA 1250
SCALARS m double
LOOKUP_TABLE default
1
1
1
1
1
1
1
1
1
1
1
1
1
1
1
1
1
1
1
1
1
1
1
1
1
1
1
1
1
1
1
1
1
1
1
1
1
1
1
1
1
1
1
1
1
1
1
1
1
1
1
1
1
1
1
1
1
1
1
1
1
1
1
1
1
1
1
1
1
1
1
1
1
1
1
1
1
1
1
1
1
1
1
1
1
1
1
1
1
1
1
1
1
1
1
1
1
1
1
1
1
1
1
1
1
1
1
1
1
1
1
1
1
1
1
1
1
1
1
1
1
1
1
1
1
1
1
1
1
1
1
1
1
1
1
1
1
1
1
1
1
1
1
1
1
1
1
1
1
1
1
1
1
1
1
1
1
1
1
1
1
1
1
1
1
1
1
1
1
1
1
1
1
1
1
1
1
1
1
1
1
1
1
1
1
1
1
1
1
1
1
1
1
1
1
1
1
1
1
1
1
1
1
1
1
1
1
1
1
1
1
1
1
1
1
1
1
1
1
1
1
1
1
1
1
1
1
1
1
1
1
1
1
1
1
1
1
1
1
1
1
1
1
1
1
1
1
1
1
1
1
1
1
1
1
1
1
1
1
1
1
1
1
1
1
1
1
1
1
1
1
1
1
1
1
1
1
1
1
1
1
1
1
1
1
1
1
1
1
1
1
1
1
1
1
1
1
1
1
1
1
1
1
1
1
1
1
1
1
1
1
1
1
1
1
1
1
1
1
1
1
1
1
1
1
1
1
1
1
1
1
1
1
1
1
1
1
1
1
1
1
1
1
1
1
1
1
1
1
1
1
1
1
1
1
1
1
1
1
1
1
1
1
1
1
1
1
1
1
1
1
1
1
1
1
1
1
1
1
1
1
1
1
1
1
1
1
1
1
1
1
1
1
1
1
1
1
1
1
1
1
1
1
1
1
1
1
1
1
1
1
1
1
1
1
1
1
1
1
1
1
1
1
1
1
1
1
1
1
1
1
1
1
1
1
1
1
1
1
1
1
1
1
1
1
1
1
1
1
1
1
1
1
1
1
1
1
1
1
1
1
1
1
1
1
1
1
1
1
1
1
1
1
1
1
1
1
1
1
1
1
1
1
1
1
1
1
1
1
1
1
1
1
1
1
1
1
1
1
1
1
1
1
1
1
1
1
1
1
1
1
1
1
1
1
1
1
1
1
1
1
1
1
1
1
1
1
1
1
1
1
1
1
1
1
1
1
1
1
1
1
1
1
1
1
1
1
1
1
1
1
1
1
1
1
1
1
1
1
1
1
1
1
1
1
1
1
1
1
1
1
1
1
1
1
1
1
1
1
1
1
1
1
1
1
1
1
1
1
1
1
1
1
1
1
1
1
1
1
1
1
1
1
1
1
1
1
1
1
1
1
1
1
1
1
1
1
1
1
1
1
1
1
1
1
1
1
1
1
1
1
1
1
1
1
1
1
1
1
1
1
1
1
1
1
1
1
1
1
1
1
1
1
1
1
1
1
1
1
1
1
1
1
1
1
1
1
1
1
1
1
1
1
1
1
1
1
1
1
1
1
1
1
1
1
1
1
1
1
1
1
1
1
1
1
1
1
1
1
1
1
1
1
1
1
1
1
1
1
1
1
1
1
1
1
1
1
1
1
1
1
1
1
1
1
1
1
1
1
1
1
1
1
1
1
1
1
1
1
1
1
1
1
1
1
1
1
1
1
1
1
1
1
1
1
1
1
1
1
1
1
1
1
1
1
1
1
1
1
1
1
1
1
1
1
1
1
1
1
1
1
1
1
1
1
1
1
1
1
1
1
1
1
1
1
1
1
1
1
1
1
1
1
1
1
1
1
1
1
1
1
1
1
1
1
1
1
1
1
1
1
1
1
1
1
1
1
1
1
1
1
1
1
1
1
1
1
1
1
1
1
1
1
1
1
1
1
1
1
1
1
1
1
1
1
1
1
1
1
1
1
1
1
1
1
1
1
1
1
1
1
1
1
1
1
1
1
1
1
1
1
1
1
1
1
1
1
1
1
1
1
1
1
1
1
1
1
1
1
1
1
1
1
1
1
1
1
1
1
1
1
1
1
1
1
1
1
1
1
1
1
1
1
1
1
1
1
1
1
1
1
1
1
1
1
1
1
1
1
1
1
1
1
1
1
1
1
1
1
1
1
1
1
1
1
1
1
1
1
1
1
1
1
1
1
1
1
1
1
1
1
1
1
1
1
1
1
1
1
1
1
1
1
1
1
1
1
1
1
1
1
1
1
1
1
1
1
1
1
1
1
1
1
1
1
1
1
1
1
1
1
1
1
1
1
1
1
1
1
1
1
1
1
1
1
1
1
1
1
1
1
1
1
1
1
1
1
1
1
1
1
1
1
1
1
1
1
1
1
1
1
1
1
1
1
1
1
1
1
1
1
1
1
1
1
1
1
1
1
1
1
1
1
1
1
1
1
1
1
1
1
1
1
1
1
1
1
1
1
1
1
1
1
1
1
1
1
1
1
1
1
1
1
1
1
1
1
1
1
1
1
1
1
1
1
1
1
1
1
1
1
1
1
1
1
1
1
1
1
1
1
1
1
1
1
1
1
1
1
1
1
1
1
1
1
1
1
1
1
1
1
1
1
1
1
1
1
1
1
1
1
1
1
1
1
1
1
1
1
1
1
1
1
1
1
1
1
1
1
1
1
1
1
1
1
1
1
1
1
1
1
1
1
1
1
1
1
1
1
1
1
1
1
1
1
1
1
1
1
1
1
1
1
1
1
1
1
1
1
1
1
1
1
1
1
1
1
1
1
1
1
1
1
1
1
1
1
1
1
1
1
1
1
1
1
1
1
1
1
1
VECTORS v double
13.118822 0.89166266 0
12.330505 -0.33083872 0
9.9285847 -0.078875083 0
9.9285446 -0.08455533 0
9.9285475 -0.084184491 0
9.9285458 -0.084384803 0
9.9285475 -0.084195248 0
9.9285455 -0.084417253 0
9.9285464 -0.084322553 0
9.9285489 -0.084180131 0
9.928552 -0.083847725 0
9.9285017 -0.08636918 0
9.9285042 -0.08612729 0
9.9284951 -0.087083532 0
9.9284954 -0.087027567 0
9.9286392 -0.05938493 0
9.9286383 -0.059520179 0
9.92864 -0.059127948 0
9.9286403 -0.059085946 0
9.928597 -0.06553095 0
9.9285997 -0.065394027 0
9.9285716 -0.06553035 0
9.9285487 -0.066783735 0
9.9285498 -0.067195842 0
9.9283925 -0.090264068 0
-9.9828653 -0.65955802 0
-10.035709 0.15384755 0
-9.9276208 0.048628545 0
-9.9276423 0.041170904 0
-9.9276421 0.040964251 0
-9.9276419 0.041035716 0
-9.9276414 0.041000219 0
-9.9276409 0.041042918 0
-9.9276412 0.041025848 0
-9.9276409 0.041025858 0
-9.9276411 0.040955614 0
-9.9276334 0.041468989 0
-9.9276165 0.041422165 0
-9.9276359 0.041634177 0
-9.9276146 0.041618961 0
-9.9276373 0.03516691 0
-9.9276338 0.03516692 0
-9.9276338 0.035085787 0
-9.9276338 0.035083657 0
-9.9276283 0.036776376 0
-9.927628 0.036776371 0
-9.9276277 0.036776176 0
-9.9276257 0.037029181 0
-9.9275988 0.042694818 0
-9.9241354 0.26200429 0
15.246404 0.59803226 0
10.938365 -0.13512309 0
9.9287076 -0.042740587 0
9.928732 -0.035890424 0
9.928731 -0.035711567 0
9.9287308 -0.035769776 0
9.9287299 -0.035740863 0
9.9287291 -0.035775643 0
9.9287295 -0.035761739 0
9.928729 -0.035761746 0
9.9287293 -0.035704537 0
9.9287167 -0.036122685 0
9.9286907 -0.036084595 0
9.9287194 -0.036257238 0
9.9286882 -0.036244704 0
9.9287125 -0.031091618 0
9.9287064 -0.031091531 0
9.9287061 -0.031025446 0
9.9287061 -0.03102373 0
9.9287005 -0.032402483 0
9.9287 -0.032402499 0
9.9286994 -0.032402332 0
9.9286974 -0.032608239 0
9.9286674 -0.037986655 0
9.9251587 -0.24920582 0
-10.014685 -0.10023562 0
-10.010707 0.018211713 0
-9.924263 0.0063189523 0
-9.9242075 0.0047326229 0
-9.9242072 0.0047120723 0
-9.9242072 0.0047120718 0
-9.9242072 0.0047120717 0
-9.9242072 0.0047120719 0
-9.9242072 0.0047120718 0
-9.9242072 0.0047120719 0
-9.9242072 0.0047120729 0
-9.9242072 0.0047120565 0
-9.9242072 0.0047121558 0
-9.9242072 0.0047120473 0
-9.9242072 0.0047119465 0
-9.9242064 0.0049175515 0
-9.9242064 0.0049175392 0
-9.9242064 0.0049175391 0
-9.9242064 0.0049175392 0
-9.9242064 0.0049175076 0
-9.9242064 0.0049175077 0
-9.9242064 0.0049174853 0
-9.9242064 0.0049172887 0
-9.9242041 0.0063504477 0
-9.9240096 0.058135001 0
11.215576 0.086975657 0
11.208902 -0.014950362 0
9.9252725 -0.0051837944 0
9.9251092 -0.0038553401 0
9.9251083 -0.0038380717 0
9.9251083 -0.0038380709 0
9.9251083 -0.0038380709 0
9.9251083 -0.003838071 0
9.9251083 -0.003838071 0
9.9251083 -0.003838071 0
9.9251083 -0.003838072 0
9.9251083 -0.0038380585 0
9.9251084 -0.0038381393 0
9.9251083 -0.0038380509 0
9.9251084 -0.0038379709 0
9.9251072 -0.0040054368 0
9.9251072 -0.0040054286 0
9.9251072 -0.0040054285 0
9.9251072 -0.0040054288 0
9.9251072 -0.0040054026 0
9.9251072 -0.0040054028 0
9.9251072 -0.0040053846 0
9.9251072 -0.0040051815 0
9.9251047 -0.0052056218 0
9.9249782 -0.052271123 0
-10.00034 0.0025728166 0
-10.000342 8.2457543e-06 0
-10.000065 -7.5522023e-06 0
-10.000059 -3.2408116e-07 0
-10.000059 1.0265888e-10 0
-10.000059 1.0218368e-10 0
-10.000059 1.0217606e-10 0
-10.000059 1.0216988e-10 0
-10.000059 1.0217447e-10 0
-10.000059 1.0217128e-10 0
-10.000059 1.0218322e-10 0
-10.000059 1.0212008e-10 0
-10.000059 1.0212548e-10 0
-10.000059 1.0218209e-10 0
-10.000059 9.1690905e-11 0
-10.000059 1.1472268e-10 0
-10.000059 1.0748218e-10 0
-10.000059 1.0760214e-10 0
-10.000059 1.0760381e-10 0
-10.000059 1.0738728e-10 0
-10.000059 1.073619e-10 0
-10.000059 1.5003041e-10 0
-10.000059 1.9264821e-08 0
-10.000059 -1.5938802e-05 0
-10.000053 -0.0025652866 0
-10.000002 0.0025607584 0
-10.000002 1.5620467e-05 0
-10.000001 -2.4317059e-07 0
-10.000001 -3.575608e-11 0
-10.000001 3.4363082e-12 0
-10.000001 3.3889447e-12 0
-10.000001 3.388919e-12 0
-10.000001 3.3881881e-12 0
-10.000001 3.390641e-12 0
-10.000001 3.3874398e-12 0
-10.000001 3.3889022e-12 0
-10.000001 3.3904106e-12 0
-10.000001 3.387434e-12 0
-10.000001 3.3888525e-12 0
-10.000001 3.3888262e-12 0
-10.000001 3.5111734e-12 0
-10.000001 3.535166e-12 0
-10.000001 3.5367046e-12 0
-10.000001 3.5367664e-12 0
-10.000001 3.5380708e-12 0
-10.000001 3.5105946e-12 0
-10.000001 4.4950465e-11 0
-10.000001 1.9092879e-08 0
-10.000001 -1.584582e-05 0
-10 -0.002560534 0
-10 0.0025604703 0
-10 1.5845844e-05 0
-10 -1.9089161e-08 0
-10 -4.1378794e-11 0
-10 2.5017582e-14 0
-10 2.4926346e-17 0
-10 -1.768213e-18 0
-10 -7.3120477e-16 0
-10 1.7204345e-15 0
-10 -1.4801618e-15 0
-10 -2.4260353e-17 0
-10 1.4347321e-15 0
-10 -1.4715482e-15 0
-10 -6.1529987e-17 0
-10 2.9710895e-17 0
-10 1.5311659e-15 0
-10 -1.5324837e-15 0
-10 -4.8858219e-18 0
-10 5.9640156e-17 0
-10 1.3968355e-15 0
-10 -2.6076943e-14 0
-10 4.1413846e-11 0
-10 1.9089176e-08 0
-10 -1.5845844e-05 0
-10 -0.0025604703 0
-10 0.0025604703 0
-10 1.5845844e-05 0
-10 -1.9089177e-08 0
-10 -4.1414268e-11 0
-10 2.5017607e-14 0
-10 2.4420493e-17 0
-10 -2.1777738e-18 0
-10 -7.3167282e-16 0
-10 1.719907e-15 0
-10 -1.4804651e-15 0
-10 -2.4826323e-17 0
-10 1.4340454e-15 0
-10 -1.4718818e-15 0
-10 -6.192368e-17 0
-10 2.9438825e-17 0
-10 1.5308076e-15 0
-10 -1.5328247e-15 0
-10 -5.2922211e-18 0
-10 5.9245287e-17 0
-10 1.3963474e-15 0
-10 -2.6077485e-14 0
-10 4.1413846e-11 0
-10 1.9089176e-08 0
-10 -1.5845844e-05 0
-10 -0.0025604703 0
-10 0.0025604703 0
-10 1.5845844e-05 0
-10 -1.9089177e-08 0
-10 -4.1413218e-11 0
-10 2.6073175e-14 0
-10 7.6514689e-17 0
-10 -2.2670508e-18 0
-10 -7.3215428e-16 0
-10 1.7199846e-15 0
-10 -1.4804208e-15 0
-10 -2.5370266e-17 0
-10 1.433344e-15 0
-10 -1.4730493e-15 0
-10 -6.1111061e-17 0
-10 3.0012517e-17 0
-10 1.5313541e-15 0
-10 -1.5330276e-15 0
-10 -5.2939544e-18 0
-10 5.9438144e-17 0
-10 1.3957563e-15 0
-10 -2.6078029e-14 0
-10 4.1413845e-11 0
-10 1.9089176e-08 0
-10 -1.5845844e-05 0
-10 -0.0025604703 0
-10 0.0025604703 0
-10 1.5845844e-05 0
-10 -1.9089176e-08 0
-10 -4.5099738e-11 0
-10 -3.6601667e-12 0
-10 8.2436149e-16 0
-10 1.6365085e-18 0
-10 -7.3095428e-16 0
-10 1.7199456e-15 0
-10 -1.4803375e-15 0
-10 -2.4339201e-17 0
-10 1.4349044e-15 0
-10 -1.4705721e-15 0
-10 -6.306048e-17 0
-10 2.9105164e-17 0
-10 1.5302386e-15 0
-10 -1.5329657e-15 0
-10 -5.3092083e-18 0
-10 6.0522209e-17 0
-10 1.3975284e-15 0
-10 -2.6077441e-14 0
-10 4.1413848e-11 0
-10 1.9089176e-08 0
-10 -1.5845844e-05 0
-10 -0.0025604703 0
-10 0.0025604703 0
-10 1.5845844e-05 0
-10 -1.9089176e-08 0
-10 -4.141439e-11 0
-9.9999999 2.4888769e-14 0
-9.9999999 2.4517455e-17 0
-9.9999999 -2.041001e-18 0
-9.9999999 -7.3083275e-16 0
-9.9999999 1.7200025e-15 0
-9.9999999 -1.4798921e-15 0
-9.9999999 -2.416103e-17 0
-9.9999999 1.4349895e-15 0
-9.9999999 -1.4699745e-15 0
-9.9999999 -6.3625547e-17 0
-9.9999999 2.9063726e-17 0
-9.9999999 1.5393217e-15 0
-9.9999999 -1.1837243e-15 0
-9.9999999 3.5182255e-16 0
-9.9999999 -3.5393365e-14 0
-9.9999999 1.6511287e-15 0
-9.9999999 9.6474995e-15 0
-9.9999999 4.1413848e-11 0
-9.9999999 1.9089176e-08 0
-9.9999999 -1.5845844e-05 0
-9.9999999 -0.0025604703 0
-9.9999999 0.0025604703 0
-9.9999999 1.5845842e-05 0
-9.9999999 -1.9091793e-08 0
-9.9999999 -3.780882e-11 0
-9.9999999 3.7102244e-12 0
-9.9999999 -8.0856504e-16 0
-9.9999999 -5.5231775e-18 0
-9.9999999 -7.3189497e-16 0
-9.9999999 -3.399656e-14 0
-9.9999999 -3.7197737e-14 0
-9.9999999 -5.1199935e-18 0
-9.9999999 1.4542878e-15 0
-9.9999999 -1.4734222e-15 0
-9.9999999 -6.051517e-17 0
-9.9999999 2.9832349e-17 0
-9.9999999 1.5131944e-15 0
-9.9999999 -2.1156536e-12 0
-9.9999999 -2.1141447e-12 0
-9.9999999 -2.2477499e-12 0
-9.9999999 -2.2462549e-12 0
-9.9999999 -2.5948301e-14 0
-9.9999999 4.1413849e-11 0
-9.9999999 1.9089176e-08 0
-9.9999999 -1.5845844e-05 0
-9.9999999 -0.0025604703 0
-9.9999999 0.0025604703 0
-9.9999999 1.5845845e-05 0
-9.9999999 -1.908864e-08 0
-9.9999998 -4.1415193e-11 0
-9.9999998 2.4098587e-14 0
-9.9999998 -2.5635133e-17 0
-9.9999998 5.3707774e-17 0
-9.9999998 -6.666719e-16 0
-9.9999998 1.5534187e-15 0
-9.9999998 -1.6629568e-15 0
-9.9999998 -4.9719502e-13 0
-9.9999998 -4.9572979e-13 0
-9.9999998 -1.4726746e-15 0
-9.9999998 -5.9575817e-17 0
-9.9999998 3.2342664e-17 0
-9.9999998 1.5311635e-15 0
-9.9999998 -1.4817542e-15 0
-9.9999997 4.7024999e-17 0
-9.9999997 3.5748366e-14 0
-9.9999996 -1.317874e-12 0
-9.9999996 -1.381055e-12 0
-9.9999996 4.1413828e-11 0
-9.9999996 1.9089176e-08 0
-9.9999996 -1.5845844e-05 0
-9.9999996 -0.0025604703 0
-9.9999996 0.0025604703 0
-9.9999996 1.5845847e-05 0
-9.9999996 -1.9086561e-08 0
-9.9999996 -4.136477e-11 0
-9.9999996 -5.4210924e-15 0
-9.9999996 4.7061047e-17 0
-9.9999996 -8.6582463e-13 0
-9.9999996 -1.0262852e-12 0
-9.9999996 -4.6696171e-13 0
-9.9999996 -3.1034969e-13 0
-9.9999996 -1.8607888e-17 0
-9.9999996 -2.8996948e-14 0
-9.9999996 -3.1876541e-14 0
-9.9999996 4.3471292e-16 0
-9.9999996 1.1372719e-15 0
-9.9999996 1.9720434e-15 0
-9.9999996 1.2464888e-12 0
-9.9999996 1.2483224e-12 0
-9.9999996 2.2478908e-12 0
-9.9999996 2.2491893e-12 0
-9.9999995 -2.6057531e-14 0
-9.9999995 4.1413845e-11 0
-9.9999995 1.9089176e-08 0
-9.9999995 -1.5845846e-05 0
-9.9999995 -0.0025604703 0
-9.9999995 0.0025604703 0
-9.9999995 1.5845844e-05 0
-9.9999995 -1.9089713e-08 0
-9.9999995 -4.1414278e-11 0
-9.9999995 2.5019909e-14 0
-9.9999995 6.6511366e-17 0
-9.9999995 3.9329317e-17 0
-9.9999994 -7.3644389e-16 0
-9.9999993 1.6517796e-15 0
-9.9999993 -1.5415246e-15 0
-9.9999993 4.9713901e-13 0
-9.9999993 4.9860174e-13 0
-9.9999993 -1.1758288e-15 0
-9.9999993 -2.5117937e-12 0
-9.9999993 -5.5578989e-12 0
-9.9999993 4.4289559e-13 0
-9.9999993 3.4840369e-12 0
-9.9999992 -5.1943014e-16 0
-9.9999992 -1.4190247e-16 0
-9.9999992 1.3211667e-12 0
-9.9999992 1.2939285e-12 0
-9.9999992 4.1413916e-11 0
-9.9999992 1.9089176e-08 0
-9.9999992 -1.5845844e-05 0
-9.9999991 -0.0025604703 0
-9.9999991 0.0025604703 0
-9.9999991 1.5845844e-05 0
-9.9999991 -1.9089176e-08 0
-9.9999991 -4.1383809e-11 0
-9.9999991 5.5439972e-14 0
-9.9999991 -7.6095938e-13 0
-9.9999991 1.0485914e-13 0
-9.9999991 1.0248392e-12 0
-9.9999991 5.0612065e-13 0
-9.9999991 3.4310652e-13 0
-9.9999991 -5.5489762e-17 0
-9.9999991 3.1944357e-14 0
-9.9999991 3.0202027e-14 0
-9.9999991 2.0672515e-16 0
-9.999999 1.0899249e-16 0
-9.999999 8.6648692e-15 0
-9.9999991 1.3363556e-12 0
-9.9999991 1.3279903e-12 0
-9.9999991 4.6228359e-13 0
-9.9999991 -2.5813335e-12 0
-9.9999991 -3.2839238e-12 0
-9.9999991 4.1201166e-11 0
-9.9999991 1.9092057e-08 0
-9.9999991 -1.584584e-05 0
-9.9999991 -0.0025604703 0
-9.9999991 0.0025604703 0
-9.9999991 1.5845841e-05 0
-9.9999991 -1.9088721e-08 0
-9.9999991 -4.0952858e-11 0
-9.9999991 4.8220449e-13 0
-9.9999991 -7.7368807e-15 0
-9.999999 5.0257309e-17 0
-9.999999 -7.807732e-16 0
-9.999999 1.9687399e-15 0
-9.999999 -1.2784924e-15 0
-9.999999 1.5207711e-17 0
-9.999999 8.4360816e-15 0
-9.999999 -3.6169792e-12 0
-9.999999 2.572325e-12 0
-9.999999 9.7262881e-12 0
-9.999999 -5.5311258e-11 0
-9.999999 5.9547777e-11 0
-9.999999 7.4027697e-11 0
-9.999999 7.4031667e-11 0
-9.999999 7.4033077e-11 0
-9.999999 7.3873235e-11 0
-9.9999989 1.1531363e-10 0
-9.9999989 1.9163208e-08 0
-9.999999 -1.584577e-05 0
-9.999999 -0.0025604702 0
-9.999999 0.0025604702 0
-9.9999989 1.5846383e-05 0
-9.9999989 -1.9015271e-08 0
-9.9999989 3.2598533e-11 0
-9.9999989 1.1663239e-10 0
-9.9999989 -5.3940385e-13 0
-9.9999989 1.2296511e-12 0
-9.9999989 3.3457869e-13 0
-9.9999989 3.3707362e-13 0
-9.9999989 4.599824e-13 0
-9.9999989 4.1689173e-12 0
-9.9999989 -5.1174671e-11 0
-9.9999989 6.3869518e-11 0
-9.9999988 7.4851074e-11 0
-9.9999989 7.1993641e-11 0
-9.9999989 -7.5661321e-10 0
-9.9999984 4.8780509e-07 0
-9.9999984 4.8698437e-07 0
-9.9999984 4.8698144e-07 0
-9.9999984 4.8698446e-07 0
-9.9999984 4.869851e-07 0
-9.9999983 4.8702297e-07 0
-9.9999983 5.0606756e-07 0
-9.9999983 -1.5358865e-05 0
-9.9999983 -0.0025599833 0
-9.999991 0.0025604694 0
-9.9999983 1.6334123e-05 0
-9.9999983 4.6789534e-07 0
-9.9999983 4.8694322e-07 0
-9.9999983 4.8780933e-07 0
-9.9999984 -7.5411073e-10 0
-9.9999984 7.0557231e-11 0
-9.9999984 7.5162032e-11 0
-9.9999984 7.5162577e-11 0
-9.9999984 7.5186587e-11 0
-9.9999984 7.2205913e-11 0
-9.9999984 -8.7986851e-10 0
-9.9999979 4.8792974e-07 0
-9.9999978 4.871372e-07 0
-9.9999978 4.8713013e-07 0
-9.9999978 4.8714481e-07 0
-9.9999977 4.8726272e-07 0
-9.9999977 4.8720737e-07 0
-9.9999977 4.872074e-07 0
-9.9999977 4.8720605e-07 0
-9.9999976 4.8720613e-07 0
-9.9999976 4.8725007e-07 0
-9.9999976 5.0627526e-07 0
-9.9999975 -1.5358607e-05 0
-9.9999975 -0.0025599829 0
-9.9999901 0.0025604692 0
-9.9999974 1.633512e-05 0
-9.9999974 4.6815415e-07 0
-9.9999974 4.8719911e-07 0
-9.9999974 4.8724232e-07 0
-9.9999974 4.8712459e-07 0
-9.9999973 4.8716718e-07 0
-9.9999973 4.8716554e-07 0
-9.9999973 4.8716554e-07 0
-9.9999973 4.8716717e-07 0
-9.9999973 4.8715651e-07 0
-9.9999972 4.8546273e-07 0
-9.9999932 3.8980779e-06 0
-9.9999932 3.8963193e-06 0
-9.9999932 3.8963128e-06 0
-9.9999932 3.8963156e-06 0
-9.9999932 3.896316e-06 0
-9.9999932 3.8963136e-06 0
-9.9999932 3.8961741e-06 0
-9.9999932 3.8964728e-06 0
-9.9999932 3.8964961e-06 0
-9.9999932 3.8965367e-06 0
-9.9999931 3.9152302e-06 0
-9.9999925 -1.1461987e-05 0
-9.9999925 -0.0025560853 0
-9.9999268 0.002560467 0
-9.9999925 2.0235935e-05 0
-9.9999925 4.3644191e-06 0
-9.9999925 4.3834481e-06 0
-9.9999925 4.3834672e-06 0
-9.9999925 4.3835169e-06 0
-9.9999925 4.3835202e-06 0
-9.9999925 4.3835214e-06 0
-9.9999924 4.3835213e-06 0
-9.9999924 4.38352e-06 0
-9.9999924 4.38352e-06 0
-9.9999924 4.3835591e-06 0
-9.9999924 4.3838032e-06 0
-9.9999924 4.3836774e-06 0
-9.9999924 4.3836547e-06 0
-9.9999924 4.3837041e-06 0
-9.9999923 4.383708e-06 0
-9.9999923 4.3837004e-06 0
-9.9999923 4.3816121e-06 0
-9.9999898 6.5771692e-06 0
-9.9999898 6.5750802e-06 0
-9.9999897 6.5751138e-06 0
-9.9999897 6.5941647e-06 0
-9.9999897 -9.2707041e-06 0
-9.9999897 -0.002553893 0
-9.9998911 0.0025604653 0
-9.9999897 2.2429734e-05 0
-9.9999897 6.5560655e-06 0
-9.9999897 6.5751026e-06 0
-9.9999897 6.5747836e-06 0
-9.9999892 7.0624815e-06 0
-9.9999892 7.062145e-06 0
-9.9999892 7.0621575e-06 0
-9.9999891 7.0621065e-06 0
-9.9999891 7.0622295e-06 0
-9.9999891 7.0622401e-06 0
-9.9999891 7.0622402e-06 0
-9.9999891 7.0622374e-06 0
-9.9999891 7.0621903e-06 0
-9.9999891 7.061942e-06 0
-9.9999886 7.5496376e-06 0
-9.9999885 7.5492918e-06 0
-9.9999884 7.5492892e-06 0
-9.9999884 7.5493164e-06 0
-9.9999884 7.5496116e-06 0
-9.9999884 7.5494566e-06 0
-9.9999884 7.5495012e-06 0
-9.9999884 7.5685714e-06 0
-9.9999884 -8.2963457e-06 0
-9.9999884 -0.0025529188 0
-9.9998911 0.002560513 0
-10.000006 2.2192025e-05 0
-10.000005 6.8003755e-06 0
-10.000005 7.3060051e-06 0
-10.000005 7.3059688e-06 0
-10.000004 7.3058494e-06 0
-10.000004 8.2801404e-06 0
-10.000003 8.7672999e-06 0
-10.000003 8.7662359e-06 0
-10.000002 9.7418416e-06 0
-10.000002 9.7410032e-06 0
-10.000002 9.7410111e-06 0
-10.000002 9.7410022e-06 0
-10.000002 9.7403253e-06 0
-10.000002 1.0228631e-05 0
-10.000001 1.0227999e-05 0
-10.000001 1.0471504e-05 0
-10.000001 1.0471504e-05 0
-10.000001 1.0471504e-05 0
-10.000001 1.0471506e-05 0
-10.000001 1.0471571e-05 0
-9.9999935 1.0470866e-05 0
-9.9999935 1.0489877e-05 0
-9.9999935 -5.3802622e-06 0
-9.9999936 -0.0025500435 0
-10.002247 0.0024186499 0
-10.002538 2.6472444e-05 0
-10.002538 1.045658e-05 0
-10.002537 1.0963628e-05 0
-10.002537 1.1450461e-05 0
-10.002537 1.1450459e-05 0
-10.002537 1.1450498e-05 0
-10.002538 1.0963694e-05 0
-10.002545 1.1205857e-05 0
-10.002545 1.1206728e-05 0
-10.002544 1.1206589e-05 0
-10.002544 1.1694128e-05 0
-10.002544 1.1694038e-05 0
-10.002544 1.218167e-05 0
-10.002544 1.2181764e-05 0
-10.002544 1.2181722e-05 0
-10.002544 1.2181722e-05 0
-10.002544 1.2181722e-05 0
-10.002544 1.2181722e-05 0
-10.002544 1.2181729e-05 0
-10.002543 1.2670414e-05 0
-10.002543 1.2669111e-05 0
-10.002535 1.2687408e-05 0
-10.002535 -2.8302267e-06 0
-10.002393 -0.0024059894 0
-6.7338728 -0.59862552 0
-6.6518668 0.25316233 0
-9.9286495 0.076595383 0
-9.928578 0.085532209 0
-9.928581 0.085168978 0
-9.9285792 0.085371134 0
-9.928581 0.085160095 0
-9.9285789 0.085406575 0
-9.9285798 0.085300738 0
-9.928582 0.085125882 0
-9.9285851 0.084760674 0
-9.9285439 0.087542718 0
-9.9285461 0.087274442 0
-9.9285372 0.088318791 0
-9.9285372 0.088259276 0
-9.928741 0.058556414 0
-9.92874 0.058717905 0
-9.9287421 0.058285892 0
-9.9287424 0.058235594 0
-9.9286993 0.065116691 0
-9.9287014 0.06494857 0
-9.9286827 0.065116021 0
-9.9286687 0.066499889 0
-9.928669 0.065576938 0
-9.9284849 0.030322068 0
-7.7151174 0.025223548 0
9.9386266 -0.16025233 0
9.927693 -0.027624545 0
9.9275976 -0.047002018 0
9.9276023 -0.046773017 0
9.9276022 -0.046817594 0
9.9276032 -0.046550098 0
9.9276018 -0.046855724 0
9.9276023 -0.04671339 0
9.9276046 -0.046206522 0
9.9276064 -0.045792059 0
9.927591 -0.049196934 0
9.9275925 -0.048866563 0
9.9275875 -0.049986486 0
9.9276067 -0.049933635 0
9.927675 -0.024033804 0
9.9276547 -0.024116931 0
9.9276558 -0.023621542 0
9.927656 -0.023522232 0
9.9276419 -0.029353968 0
9.9276433 -0.028865818 0
9.927642 -0.029355837 0
9.9276371 -0.031088465 0
9.9276513 -0.025046147 0
9.9254486 0.20233161 0
9.1533208 0.0024219671 0
-9.9347063 0.14181406 0
-9.9290538 0.023160597 0
-9.9288655 0.04092237 0
-9.9288693 0.04070304 0
-9.9288691 0.040730586 0
-9.9288702 0.040478685 0
-9.9288688 0.040766029 0
-9.9288694 0.040630758 0