# vtk DataFile Version 4.0
hesp visualization file
ASCII
DATASET UNSTRUCTURED_GRID
POINTS 1250 double
28.275002 0.012504583 4
29.835409 0.10022609 4
32.021433 4.8908624 4
29.117054 7.1098288 4
31.271571 3.8179231 4
32.612266 6.1905056 4
33.027632 3.3368482 4
32.242299 9.7873138 4
30.819827 9.716348 4
28.823268 9.5886838 4
32.898943 11.509666 4
28.734769 15.07814 4
31.115933 14.062942 4
32.55371 14.0867 4
29.375225 18.284887 4
33.324943 15.987746 4
28.01375 20.689962 4
30.751662 22.191821 4
29.676151 22.13868 4
30.084747 24.510866 4
30.465777 22.694608 4
30.380787 25.746877 4
29.912021 24.196297 4
30.610686 29.664836 4
29.568764 30.229612 4
36.080778 -4.3144477 4
28.898657 3.1665372 4
29.076576 -1.1484759 4
29.551085 4.9071038 4
30.062013 3.8773601 4
30.404733 4.0977368 4
27.925048 4.1068684 4
28.459913 7.0728464 4
29.752881 7.8225361 4
29.382776 9.7345252 4
29.715454 13.379138 4
29.51896 11.093681 4
27.863122 14.617229 4
25.799319 14.222998 4
31.223497 14.364804 4
29.441144 21.512023 4
29.770876 16.764892 4
27.747584 19.640535 4
31.317789 20.802068 4
32.794797 21.033751 4
30.860295 26.531535 4
32.068578 22.475041 4
27.796171 28.103876 4
29.333242 31.729869 4
32.46681 29.250402 4
26.340452 1.6333649 4
30.034763 -3.0127412 4
31.020206 2.6507814 4
33.173718 5.0615152 4
30.351393 1.1911084 4
33.072504 4.4302007 4
31.794269 3.4830711 4
30.905422 8.2013482 4
30.583334 9.4856055 4
32.489652 10.921526 4
32.269686 11.293861 4
30.453222 10.852935 4
30.729086 10.87201 4
33.176005 11.019769 4
31.799999 13.165288 4
31.282279 14.900634 4
30.130852 16.926851 4
32.722228 17.901802 4
30.6206 16.497161 4
30.52476 23.074987 4
29.598077 19.873006 4
32.191506 21.6653 4
29.989502 23.150321 4
31.608192 27.514734 4
31.739795 26.693745 4
35.227019 -7.0208164 4
31.454156 -0.63077186 4
31.226458 5.500121 4
31.585628 2.3605238 4
28.018017 5.9615904 4
30.477623 7.3364573 4
29.346437 9.0339107 4
29.657026 9.5540399 4
28.479991 11.018926 4
34.435915 10.353432 4
29.037344 15.01547 4
32.757591 12.395275 4
30.727631 16.078854 4
30.656063 20.062193 4
30.667256 15.403813 4
31.355406 15.153261 4
30.371021 18.286169 4
32.641273 15.810172 4
31.434134 18.886833 4
33.717114 19.709476 4
32.812896 19.691495 4
31.750308 21.973134 4
30.134772 23.345936 4
29.481075 26.541997 4
32.274036 35.491083 4
33.144065 -2.6842986 4
31.29347 -1.327102 4
35.782862 3.1562859 4
33.731053 5.7992032 4
30.122727 2.5078735 4
33.573722 7.1504173 4
32.808866 5.6815062 4
32.750864 6.7901644 4
32.764581 7.923642 4
32.668327 9.2050088 4
32.829485 9.8102908 4
33.427915 10.662851 4
34.493915 12.127169 4
33.462442 12.85863 4
33.194101 14.171324 4
33.667022 16.235853 4
33.301328 16.671879 4
33.165804 20.168734 4
30.632372 18.541491 4
35.095405 20.456905 4
32.96296 22.445991 4
32.194048 20.826869 4
34.241917 22.655864 4
34.452331 26.618389 4
30.743128 27.44107 4
28.822673 -1.7745238 4
29.459266 1.8996392 4
34.42285 6.3963112 4
35.338473 8.4415777 4
35.100709 6.7092242 4
34.175344 8.6011449 4
34.785253 9.1167226 4
34.945544 10.076636 4
34.618216 11.34953 4
34.891394 13.477136 4
34.882503 14.615093 4
35.536626 15.254526 4
34.947581 16.986848 4
35.265886 17.404337 4
32.789948 19.051782 4
33.739239 21.376464 4
34.371193 20.875658 4
34.784389 21.804872 4
34.443823 23.231115 4
35.230425 24.316935 4
33.173317 26.769989 4
31.988672 23.666124 4
33.545691 27.812033 4
34.047341 30.25168 4
28.46439 28.731925 4
33.42413 3.7842606 4
30.648655 -3.6517295 4
37.582121 4.7242997 4
32.028121 2.7753412 4
30.519532 6.4675202 4
29.328777 6.620151 4
31.983215 7.4056738 4
31.978172 10.396524 4
29.759539 11.577543 4
30.447405 10.559684 4
32.944153 12.643569 4
30.739684 13.480594 4
31.07376 14.566822 4
33.713123 15.100749 4
30.774587 14.853049 4
30.338622 17.433086 4
31.269993 17.733291 4
31.550342 20.509456 4
32.623303 23.25147 4
31.204184 21.897519 4
32.602742 22.465615 4
33.024883 24.625195 4
32.330262 24.968237 4
34.110039 23.503679 4
31.014444 29.726337 4
38.978873 -2.2431611 4
32.134129 3.5550625 4
31.995763 2.4383593 4
36.018208 6.3264488 4
33.733341 7.477507 4
31.393175 4.5235508 4
31.288862 8.1579133 4
30.74406 9.0918116 4
33.234056 9.6233606 4
36.237268 9.8254899 4
31.494275 13.080254 4
32.374032 13.698991 4
31.951552 15.573453 4
31.048004 16.029556 4
35.3428 15.760905 4
33.322637 18.583936 4
34.34098 19.999869 4
33.176954 21.269345 4
32.433031 22.306568 4
31.176466 23.119759 4
31.54892 23.743595 4
31.568639 26.447074 4
34.991599 26.576508 4
32.125322 27.132635 4
37.990227 32.186731 4
33.130488 1.2937843 4
34.970487 2.6273065 4
34.390979 1.3077756 4
32.854858 2.6932617 4
34.671145 3.8081462 4
33.535688 3.5369584 4
34.293585 7.619137 4
34.418274 10.101551 4
34.397314 11.252372 4
34.754681 12.563868 4
34.28667 13.466193 4
34.224078 14.560267 4
33.827922 15.44595 4
33.962846 16.638961 4
34.197535 16.205004 4
34.088674 18.976367 4
32.233924 16.409732 4
32.79913 17.034438 4
32.621875 18.357333 4
34.897984 19.293924 4
35.501309 23.866004 4
34.449719 25.639973 4
36.947369 24.544348 4
35.495512 26.869484 4
35.06434 27.209898 4
32.69731 0.32511517 4
31.370564 1.7896063 4
35.169468 3.325118 4
36.090226 6.5727453 4
34.371683 6.8491633 4
35.339158 7.2349638 4
35.643037 8.158593 4
35.371727 9.0475471 4
35.914324 10.929185 4
35.976342 12.202632 4
35.385087 13.318576 4
35.097771 14.392237 4
35.611708 16.074974 4
35.939242 16.767367 4
35.170708 17.768323 4
36.869789 19.783429 4
36.977368 20.769071 4
36.95396 21.907172 4
35.867824 22.418205 4
37.345255 24.415887 4
35.269195 25.26066 4
35.498973 26.559523 4
35.448442 27.806759 4
34.322078 28.43317 4
32.018406 28.053906 4
33.062434 -0.024584051 4
33.118542 2.2492921 4
33.041977 3.0613856 4
34.245709 3.7505835 4
36.791448 4.841616 4
36.420817 4.8932184 4
36.595709 6.6803291 4
36.375626 8.1215631 4
36.324617 9.1647111 4
36.342578 10.321095 4
36.343083 11.444369 4
36.437941 12.66221 4
36.806114 12.996981 4
36.807844 14.139837 4
35.996405 15.943923 4
35.132494 16.250326 4
35.404384 18.732191 4
34.670184 18.381158 4
34.68547 20.173676 4
34.893592 20.784264 4
36.36093 24.32672 4
34.528558 23.799759 4
33.81279 24.887205 4
35.744552 27.13854 4
33.146911 29.561651 4
37.521428 -2.7084911 4
34.272625 2.2438002 4
34.278142 3.3940176 4
37.795038 6.4149053 4
34.273923 7.2187697 4
36.729305 7.3683041 4
34.888539 8.7713042 4
34.951966 9.6830698 4
34.931694 10.510347 4
35.029 11.239675 4
34.895017 12.92094 4
35.130313 13.972908 4
34.404257 14.743052 4
35.524264 14.737152 4
36.395902 17.90843 4
36.567357 18.504297 4
35.228671 19.470244 4
35.303252 20.610595 4
35.075598 22.408704 4
34.422708 21.656325 4
34.794475 24.006518 4
35.777459 25.286956 4
34.247174 25.866135 4
37.342962 27.881618 4
37.847209 30.704028 4
35.391494 1.1260978 4
37.054301 2.7971962 4
35.459705 3.3642443 4
35.393211 4.5000048 4
38.847621 6.3509586 4
38.636247 7.6473474 4
38.636313 8.7697166 4
38.636312 9.8921807 4
38.636313 11.014641 4
38.636312 12.137103 4
38.636313 13.259564 4
38.636322 14.382015 4
38.636164 15.5047 4
38.637151 16.625771 4
38.637899 17.747998 4
39.806988 18.226574 4
37.289739 20.766225 4
37.290445 21.88896 4
37.291526 23.011114 4
37.452091 23.841813 4
37.291999 25.256242 4
37.291818 26.379035 4
38.303382 26.054818 4
37.263207 28.638922 4
35.39166 28.150736 4
36.514458 1.1262149 4
36.502435 2.269713 4
36.514465 3.3668861 4
36.879908 4.0410891 4
36.519079 5.5956506 4
37.188465 6.8067229 4
36.800305 7.7328847 4
36.885008 8.8842118 4
36.854881 9.9924769 4
36.853927 11.114713 4
36.696801 12.226825 4
36.499441 13.499178 4
36.505195 14.633467 4
36.502895 15.746392 4
36.502869 16.868923 4
37.838829 17.576828 4
37.995898 18.705688 4
38.495659 18.977892 4
38.497484 20.10096 4
38.497481 21.223422 4
38.497223 22.345797 4
38.497225 23.468263 4
38.497131 24.590755 4
39.557736 25.991252 4
36.538327 28.040039 4
37.63693 1.1262104 4
37.636901 2.2449515 4
37.636914 3.3673789 4
37.750071 4.3567599 4
37.636344 5.6136587 4
37.783043 7.0458651 4
37.64088 7.8414845 4
37.640878 8.9639561 4
37.64088 10.086418 4
37.64088 11.20888 4
37.640883 12.331343 4
37.640881 13.453804 4
37.640883 14.576265 4
37.640889 15.698725 4
37.640873 16.821247 4
37.650749 17.973845 4
37.699476 19.293806 4
37.640791 20.216461 4
37.64077 21.33891 4
37.640781 22.46138 4
37.640128 23.584386 4
37.640673 24.706252 4
37.636935 25.360229 4
37.634849 26.93636 4
37.635581 28.057646 4
38.759393 1.1262094 4
38.759393 2.2449365 4
38.759393 3.3673861 4
38.759392 4.4898491 4
38.759364 5.6123753 4
39.189516 7.1702607 4
39.388555 8.1934179 4
39.3885 9.3159512 4
39.388502 10.438412 4
39.3885 11.560875 4
39.388501 12.683337 4
39.3885 13.8058 4
39.388493 14.92827 4
39.388634 16.050581 4
39.387753 17.173996 4
39.306568 18.225549 4
38.758628 19.081874 4
38.758764 20.204541 4
38.758764 21.327004 4
38.758753 22.449463 4
38.758753 23.571925 4
38.758749 24.694387 4
38.752629 25.767535 4
38.759352 26.938986 4
38.759391 28.057802 4
39.881856 1.1262094 4
39.881856 2.2449365 4
39.881856 3.367386 4
39.881856 4.4898482 4
39.881855 5.6123111 4
39.881841 6.7347757 4
39.881811 7.8572468 4
39.881811 8.9797082 4
39.881811 10.10217 4
39.881811 11.224632 4
39.881811 12.347094 4
39.881811 13.469556 4
39.881811 14.592018 4
39.881811 15.714481 4
39.881811 16.836943 4
39.881669 17.959128 4
39.881847 19.081844 4
39.881855 20.204317 4
39.881855 21.326779 4
39.881855 22.449241 4
39.881855 23.571703 4
39.881855 24.694165 4
39.881731 25.816677 4
39.881853 26.939074 4
39.881856 28.057804 4
41.004318 1.1262094 4
41.004318 2.2449365 4
41.004318 3.3673861 4
41.004318 4.4898483 4
41.004318 5.6123103 4
41.004318 6.7347724 4
41.004318 7.8572344 4
41.004318 8.9796965 4
41.004318 10.102159 4
41.004318 11.224621 4
41.004318 12.347083 4
41.004318 13.469545 4
41.004318 14.592007 4
41.004318 15.714469 4
41.004318 16.836931 4
41.004318 17.959393 4
41.004318 19.081855 4
41.004319 20.204317 4
41.004319 21.326779 4
41.004319 22.449241 4
41.004319 23.571703 4
41.004319 24.694165 4
41.004319 25.816628 4
41.004319 26.939077 4
41.004319 28.057804 4
42.126786 1.1262094 4
42.126781 2.2449368 4
[...]
POINT_DATA 1250
SCALARS m double
LOOKUP_TABLE default
1
1
1
1
1
1
1
1
1
1
1
1
1
1
1
1
1
1
1
1
1
1
1
1
1
1
1
1
1
1
1
1
1
1
1
1
1
1
1
1
1
1
1
1
1
1
1
1
1
1
1
1
1
1
1
1
1
1
1
1
1
1
1
1
1
1
1
1
1
1
1
1
1
1
1
1
1
1
1
1
1
1
1
1
1
1
1
1
1
1
1
1
1
1
1
1
1
1
1
1
1
1
1
1
1
1
1
1
1
1
1
1
1
1
1
1
1
1
1
1
1
1
1
1
1
1
1
1
1
1
1
1
1
1
1
1
1
1
1
1
1
1
1
1
1
1
1
1
1
1
1
1
1
1
1
1
1
1
1
1
1
1
1
1
1
1
1
1
1
1
1
1
1
1
1
1
1
1
1
1
1
1
1
1
1
1
1
1
1
1
1
1
1
1
1
1
1
1
1
1
1
1
1
1
1
1
1
1
1
1
1
1
1
1
1
1
1
1
1
1
1
1
1
1
1
1
1
1
1
1
1
1
1
1
1
1
1
1
1
1
1
1
1
1
1
1
1
1
1
1
1
1
1
1
1
1
1
1
1
1
1
1
1
1
1
1
1
1
1
1
1
1
1
1
1
1
1
1
1
1
1
1
1
1
1
1
1
1
1
1
1
1
1
1
1
1
1
1
1
1
1
1
1
1
1
1
1
1
1
1
1
1
1
1
1
1
1
1
1
1
1
1
1
1
1
1
1
1
1
1
1
1
1
1
1
1
1
1
1
1
1
1
1
1
1
1
1
1
1
1
1
1
1
1
1
1
1
1
1
1
1
1
1
1
1
1
1
1
1
1
1
1
1
1
1
1
1
1
1
1
1
1
1
1
1
1
1
1
1
1
1
1
1
1
1
1
1
1
1
1
1
1
1
1
1
1
1
1
1
1
1
1
1
1
1
1
1
1
1
1
1
1
1
1
1
1
1
1
1
1
1
1
1
1
1
1
1
1
1
1
1
1
1
1
1
1
1
1
1
1
1
1
1
1
1
1
1
1
1
1
1
1
1
1
1
1
1
1
1
1
1
1
1
1
1
1
1
1
1
1
1
1
1
1
1
1
1
1
1
1
1
1
1
1
1
1
1
1
1
1
1
1
1
1
1
1
1
1
1
1
1
1
1
1
1
1
1
1
1
1
1
1
1
1
1
1
1
1
1
1
1
1
1
1
1
1
1
1
1
1
1
1
1
1
1
1
1
1
1
1
1
1
1
1
1
1
1
1
1
1
1
1
1
1
1
1
1
1
1
1
1
1
1
1
1
1
1
1
1
1
1
1
1
1
1
1
1
1
1
1
1
1
1
1
1
1
1
1
1
1
1
1
1
1
1
1
1
1
1
1
1
1
1
1
1
1
1
1
1
1
1
1
1
1
1
1
1
1
1
1
1
1
1
1
1
1
1
1
1
1
1
1
1
1
1
1
1
1
1
1
1
1
1
1
1
1
1
1
1
1
1
1
1
1
1
1
1
1
1
1
1
1
1
1
1
1
1
1
1
1
1
1
1
1
1
1
1
1
1
1
1
1
1
1
1
1
1
1
1
1
1
1
1
1
1
1
1
1
1
1
1
1
1
1
1
1
1
1
1
1
1
1
1
1
1
1
1
1
1
1
1
1
1
1
1
1
1
1
1
1
1
1
1
1
1
1
1
1
1
1
1
1
1
1
1
1
1
1
1
1
1
1
1
1
1
1
1
1
1
1
1
1
1
1
1
1
1
1
1
1
1
1
1
1
1
1
1
1
1
1
1
1
1
1
1
1
1
1
1
1
1
1
1
1
1
1
1
1
1
1
1
1
1
1
1
1
1
1
1
1
1
1
1
1
1
1
1
1
1
1
1
1
1
1
1
1
1
1
1
1
1
1
1
1
1
1
1
1
1
1
1
1
1
1
1
1
1
1
1
1
1
1
1
1
1
1
1
1
1
1
1
1
1
1
1
1
1
1
1
1
1
1
1
1
1
1
1
1
1
1
1
1
1
1
1
1
1
1
1
1
1
1
1
1
1
1
1
1
1
1
1
1
1
1
1
1
1
1
1
1
1
1
1
1
1
1
1
1
1
1
1
1
1
1
1
1
1
1
1
1
1
1
1
1
1
1
1
1
1
1
1
1
1
1
1
1
1
1
1
1
1
1
1
1
1
1
1
1
1
1
1
1
1
1
1
1
1
1
1
1
1
1
1
1
1
1
1
1
1
1
1
1
1
1
1
1
1
1
1
1
1
1
1
1
1
1
1
1
1
1
1
1
1
1
1
1
1
1
1
1
1
1
1
1
1
1
1
1
1
1
1
1
1
1
1
1
1
1
1
1
1
1
1
1
1
1
1
1
1
1
1
1
1
1
1
1
1
1
1
1
1
1
1
1
1
1
1
1
1
1
1
1
1
1
1
1
1
1
1
1
1
1
1
1
1
1
1
1
1
1
1
1
1
1
1
1
1
1
1
1
1
1
1
1
1
1
1
1
1
1
1
1
1
1
1
1
1
1
1
1
1
1
1
1
1
1
1
1
1
1
1
1
1
1
1
1
1
1
1
1
1
1
1
1
1
1
1
1
1
1
1
1
1
1
1
1
1
1
1
1
1
1
1
1
1
1
1
1
1
1
1
1
1
1
1
1
1
1
1
1
1
1
1
1
1
1
1
1
1
1
1
1
1
1
1
1
1
1
1
1
1
1
1
1
1
1
1
1
1
1
1
1
1
1
1
1
1
1
1
1
1
1
1
1
1
1
1
1
1
1
1
1
1
1
1
1
1
1
1
1
1
1
1
1
1
1
1
1
1
1
VECTORS v double
-3.5077421 -9.3852496 0
-4.4417246 -4.7322685 0
5.8280172 2.3426173 0
-2.2883762 11.456806 0
11.882606 -7.3198408 0
4.402686 2.7160975 0
5.0566939 -17.159392 0
1.5649359 7.9089582 0
5.15739 -5.7540833 0
-11.598539 -4.4455635 0
7.7406933 0.90243656 0
13.224981 -15.031569 0
5.4769193 -3.4871721 0
6.4568015 -3.9888358 0
-6.0388999 -3.1211874 0
-0.99865291 -6.515685 0
-3.2411448 12.929852 0
6.4682985 4.9189789 0
-4.7533925 -3.2601814 0
6.4025471 2.8355651 0
-6.3807686 5.2796737 0
5.5453112 -0.67037218 0
-2.1781368 0.58425314 0
0.91618314 22.540186 0
1.6889407 10.70957 0
8.8420086 -9.0870682 0
1.3071731 -9.7145126 0
-4.881084 -9.0870729 0
-14.89261 -1.8728861 0
-3.5004323 4.020731 0
-3.0917018 -1.4504863 0
-0.2553924 -6.0131371 0
-8.7487117 -1.9761658 0
1.0970247 -0.52077444 0
-7.1338365 1.31652 0
-4.0995113 2.1509521 0
-3.4659298 -5.71229 0
-3.4376444 -15.487768 0
16.609759 6.4319076 0
14.71551 0.77350592 0
-6.4411111 5.2455856 0
-10.697837 5.7248564 0
-5.2505782 0.65491648 0
9.1440766 7.9364617 0
4.5815245 10.539906 0
0.60742582 8.9273541 0
0.57292375 -6.7076017 0
-7.4908731 9.1807486 0
1.4689403 13.663836 0
1.1654822 0.90732642 0
-4.1580891 -4.5943225 0
-2.75655 -9.3158984 0
3.8507407 -2.7991478 0
-2.6508502 4.8369655 0
14.321757 -9.3942046 0
-4.8376986 3.9441789 0
-3.300763 -11.926132 0
9.3616572 1.8013399 0
-3.4242662 -1.7429783 0
8.6496938 8.6281368 0
0.43482533 0.64499286 0
5.3853687 0.30736474 0
-2.6760097 2.6167934 0
-0.31121728 0.17942735 0
10.880703 -14.201017 0
3.0344125 -3.5702404 0
-0.21559745 5.8269477 0
6.2027283 -3.9148478 0
-7.1374293 5.7370664 0
-9.2546341 9.7832066 0
-8.3401686 4.7371698 0
5.0475635 0.94348424 0
-3.8028775 -0.67661875 0
5.4572429 9.0507146 0
-3.4649449 -2.5034623 0
3.9466542 -13.879275 0
2.5201135 -1.7795481 0
6.3586188 0.17190722 0
6.7657889 -11.725004 0
-3.479369 4.7661184 0
0.86590484 8.8710026 0
-4.1907045 12.570725 0
8.0077597 10.265684 0
-1.1012374 1.3918081 0
-5.0335502 12.785138 0
-3.0776445 0.89500342 0
0.91365835 -12.478297 0
-3.0510825 -5.2832319 0
-2.7807449 -4.7113535 0
5.9176391 -0.58151401 0
2.1432785 -0.60455726 0
-5.5838937 0.84208323 0
5.5974242 -13.274548 0
1.2148874 -7.0984119 0
4.3906554 -9.0685893 0
-6.8887512 -5.848971 0
4.2357124 -6.2318358 0
-8.5439405 6.8060556 0
-2.252498 -2.8986831 0
0.47115582 14.494986 0
3.3724481 -12.746404 0
-4.6138682 -16.317951 0
6.4153402 5.5581042 0
2.4273331 7.4510309 0
-10.268093 -12.450356 0
-1.5578877 10.616651 0
-6.3598109 -8.3001705 0
-7.7393883 -7.5664167 0
-7.0576176 -8.0086446 0
-7.4968998 -7.1323769 0
-3.7496881 -17.758633 0
0.66945687 -12.717423 0
5.0204695 -8.2761743 0
-3.8750922 -11.025081 0
-5.1636125 -10.084517 0
11.476648 0.16143756 0
-1.557618 0.7253004 0
12.175882 -8.3067273 0
-9.5984814 -7.8828906 0
-2.1692784 -5.2201529 0
-11.570119 6.6698553 0
-12.094826 -9.919789 0
8.9970529 -5.3720581 0
5.5245998 -1.1783531 0
5.2225468 1.6675469 0
3.4878073 -15.605796 0
-11.152648 -9.3472049 0
-1.934241 1.7842178 0
1.1346801 5.6169438 0
-5.8842258 -11.888952 0
-14.821499 5.6755228 0
-4.5655952 -4.2881252 0
9.2248162 -19.221581 0
-0.60198754 0.48178263 0
-10.731406 5.8809898 0
-4.0227441 7.3543318 0
2.3183131 -2.8111011 0
-10.186827 3.2156525 0
4.4277808 -6.4307957 0
-15.135144 -4.648075 0
0.017724767 9.1132023 0
1.5615565 -7.3365461 0
-5.755648 8.4537788 0
-2.219907 0.092295189 0
2.6953638 -0.27115959 0
-9.2192117 7.9345161 0
-13.963094 -8.3383701 0
-7.5934589 -0.042489946 0
2.7836683 9.3005487 0
-10.090153 1.3708293 0
-0.18650439 -10.417959 0
-7.1212194 -15.01951 0
-3.0891923 5.8125368 0
3.2375349 -0.51554502 0
3.1371282 -13.785226 0
-12.837277 0.98362005 0
-1.0956777 1.814941 0
-1.4107448 0.35012003 0
1.2734737 5.0350899 0
-8.7187743 0.41558761 0
-1.4229627 2.9048744 0
-5.796413 -4.0203182 0
-0.24166944 -5.9003705 0
6.6296315 -2.5838395 0
-12.955826 0.21982418 0
-10.562085 -6.320809 0
-8.3662684 -7.6823164 0
2.7536153 -4.5496028 0
3.6414953 4.0387472 0
-7.392787 -2.1845518 0
-4.3842529 -4.5787817 0
5.3954485 4.2994474 0
12.113829 1.6239123 0
8.8137312 -4.2894261 0
-9.7895201 7.5448618 0
7.9152724 -6.5258278 0
-10.205193 -1.7422609 0
0.92393974 -8.9865594 0
0.40601693 -5.1577229 0
6.0732516 8.0601703 0
-5.3636197 -16.477338 0
-0.94205571 0.82259408 0
-9.9006581 -0.66119031 0
11.958934 -5.7291658 0
16.581889 -0.16111165 0
12.468959 7.2100104 0
6.6784898 -3.7445057 0
6.8378503 6.6391368 0
14.812729 -8.4254643 0
6.7515466 -6.0319149 0
-2.3843139 3.34098 0
-13.84721 -5.6301012 0
-8.0056855 6.6816813 0
8.4514322 4.1065973 0
-4.8669696 3.4180704 0
0.17873052 -6.6214716 0
-7.4285844 4.6410297 0
2.8181696 1.5677299 0
-5.8653651 0.4444114 0
6.2747722 8.8218573 0
-3.8401095 -7.1229765 0
-10.910198 -0.067394907 0
-2.8573637 -0.45049556 0
-6.8964832 5.9062084 0
-5.605505 1.7212782 0
-2.4445121 -2.519948 0
-2.7045116 6.0876788 0
-3.2770322 -0.63789742 0
-8.330602 10.308195 0
6.4929015 16.552905 0
-2.6943654 13.643265 0
-3.6516121 12.840324 0
-4.3726069 12.9546 0
-3.9601414 12.708103 0
-7.7171602 5.0568126 0
-2.9252376 13.989592 0
-16.168682 -2.3842642 0
-8.2944494 -7.8423949 0
-13.646716 -4.4562475 0
13.592707 -3.9217523 0
-3.0962544 6.8591782 0
2.1159465 5.6620892 0
10.0165 0.38080433 0
-1.2176454 -1.6648633 0
-8.308348 0.32434816 0
-2.9288382 -9.0111495 0
-11.761215 1.4701889 0
-9.9573024 -7.1079781 0
-6.5669392 7.16646 0
-16.796456 0.81539236 0
-2.4915161 1.5554597 0
2.78864 -7.5879787 0
-4.730573 -12.471344 0
4.0360184 2.4837837 0
3.3157216 4.823929 0
1.0702484 -1.0756462 0
-10.550583 -1.9287129 0
-1.5079865 8.4675462 0
4.8979965 -0.83430735 0
-8.8105724 3.0507105 0
3.243494 2.982228 0
4.0463799 1.9216109 0
3.9172627 2.0399395 0
-3.5277129 -3.6553218 0
1.6660244 12.665354 0
-8.7100278 1.7712679 0
-6.8609224 9.2391002 0
-6.0284306 -0.21747293 0
-10.005257 5.3103153 0
-10.026046 -0.013973096 0
-10.547702 -6.8112746 0
-10.314432 0.13649743 0
-12.068692 -7.6304947 0
8.81876 -8.0659971 0
7.1204444 0.46022505 0
-7.8399378 -3.8176791 0
1.7628361 0.13098087 0
-7.5253702 5.0290746 0
-9.1138763 3.0452852 0
-8.5884048 3.8629994 0
-8.5672488 3.8951568 0
-5.1668954 6.4010431 0
4.3442283 -6.5535483 0
4.2831803 -6.5689743 0
5.5832259 -4.3591695 0
-7.950135 -3.0573173 0
-4.4204623 1.1975487 0
-12.698267 -7.3352544 0
3.6655403 4.6620006 0
-5.9870957 -10.285998 0
7.9142953 13.548913 0
-10.00383 -1.8115131 0
-7.2519103 -3.6487909 0
-3.2931998 6.7616617 0
-10.019086 9.1956008 0
0.82931441 -12.767679 0
-9.981748 0.014491622 0
-9.8384765 0.48327288 0
-1.0962713 -4.0538514 0
-11.633622 10.365903 0
6.5666291 3.4546072 0
-10.461452 6.2792664 0
-8.6448894 1.0918867 0
-4.4325663 6.8791896 0
-9.9667946 -8.748473 0
-5.9313773 -0.99916524 0
-1.4678938 -2.27306 0
-11.482142 -3.5952176 0
2.7917929 -13.413511 0
-4.3217048 -1.1216446 0
-3.3637391 10.660675 0
-3.6945565 -5.6908941 0
6.6373167 1.7940576 0
-5.9311446 5.5681886 0
-10.567097 -7.0698559 0
-10.880942 1.1849207 0
-2.8909261 -6.60232 0
-13.5127 7.5093804 0
-2.3258269 11.749987 0
3.3784885 9.8876431 0
-10.001445 0.0074113281 0
-0.38686443 2.9412732 0
2.2054225 -0.05747329 0
-9.9756124 0.092668014 0
-3.7796036 -6.1228739 0
-8.4839404 -2.8344316 0
-8.4832855 -2.8351681 0
-8.4833145 -2.8351272 0
-8.4832806 -2.8351703 0
-8.4832943 -2.835152 0
-8.4832799 -2.8351727 0
-8.4831001 -2.8354038 0
-8.4864589 -2.8310331 0
-8.4654012 -2.8582625 0
-8.4358747 -2.8745106 0
14.053048 -0.047302802 0
-4.2618856 9.4257858 0
-4.3009666 9.4273925 0
-4.197972 9.4062501 0
1.7017946 -1.3700899 0
-4.1425457 9.4301892 0
-4.2055104 9.4206433 0
2.1104361 0.036892918 0
-4.5677274 9.5687851 0
-9.9389277 5.972993 0
-10.000022 0.0082182407 0
-10.117975 0.38560771 0
-9.9978201 -0.010708865 0
-1.5706298 -10.442828 0
-9.9291132 -0.18213892 0
6.4959518 1.1859088 0
0.99752701 -5.7082164 0
2.8760176 -4.1334975 0
2.2422893 -4.7774458 0
2.2252933 -4.7910275 0
-1.6696522 -6.4571087 0
-10.113275 0.098602913 0
-9.9300985 0.48708296 0
-10.068071 0.19967854 0
-10.066997 0.19735874 0
8.0763535 -6.8225036 0
-2.7957933 -1.9242363 0
1.3815859 -7.6453816 0
1.4020611 -7.6371571 0
1.4021378 -7.6370647 0
1.4078861 -7.6352583 0
1.4075392 -7.6351895 0
1.408796 -7.6337742 0
14.297452 -3.2181507 0
-9.6736861 -0.19276756 0
-10.000012 0.0081955816 0
-10.001371 0.000934079 0
-10.000962 -0.00043060855 0
-0.65835427 -11.182241 0
-10.00567 0.014527876 0
-4.8096489 11.51474 0
-9.9416759 -0.18051224 0
-9.9420439 -0.17970372 0
-9.9418475 -0.17969565 0
-9.94183 -0.17970217 0
-9.9414143 -0.17959484 0
-9.941453 -0.17971496 0
-9.9413657 -0.17977635 0
-9.9410103 -0.17969045 0
-9.9412262 -0.17750805 0
-9.3550005 1.4757551 0
-8.8740276 3.5083793 0
-9.8970055 0.22388536 0
-9.8985633 0.2219375 0
-9.8979899 0.22192532 0
-9.9480869 0.26241282 0
-9.9184513 0.2065882 0
-10.062022 -8.2985983 0
-10.022418 -0.030450614 0
-10.084347 -0.041772295 0
-9.9999989 0.0081766144 0
-10.000007 -1.2564351e-07 0
-10.000017 6.9180808e-06 0
-10.000136 1.8514722e-05 0
-10.000425 0.0027857694 0
1.2806366 11.4691 0
5.9194489 8.5156652 0
5.918037 8.5175087 0
5.9180666 8.5174728 0
5.9180345 8.5175106 0
5.9180483 8.5174944 0
5.9180323 8.517513 0
5.9178598 8.5177233 0
5.9211336 8.5137115 0
5.9006215 8.5390961 0
2.9638239 5.9316971 0
-9.6964152 0.12663493 0
-9.6497572 0.14586398 0
-9.649838 0.14587133 0
-9.6573316 0.14338455 0
-9.6572631 0.14342063 0
-9.6593759 0.14262741 0
-10.217923 -1.5603637 0
-10.000732 -0.0025002156 0
-10.000073 -0.0082004485 0
-9.9999976 0.0081761428 0
-9.9999976 -2.5636295e-06 0
-9.999998 -3.2162771e-07 0
-9.9999998 2.1076429e-06 0
-10.000053 4.2581541e-05 0
-10.001128 0.00039084604 0
-10.005118 0.0021632417 0
-10.005132 0.0020836333 0
-10.005132 0.002083608 0
-10.005132 0.0020835746 0
-10.005132 0.0020835892 0
-10.005132 0.0020835703 0
-10.005131 0.0020833817 0
-10.00514 0.0020870162 0
-10.005105 0.0021068285 0
-9.8488594 -0.46517097 0
-10.000473 -0.00090417104 0
-10.00005 -8.9567125e-06 0
-10.000044 2.4237908e-07 0
-10.000044 2.4048154e-07 0
-10.000044 1.1301909e-06 0
-10.000059 3.2085474e-05 0
-10.032121 0.014784089 0
-10.00015 -0.0002206511 0
-9.999999 -0.0081792757 0
-9.9999975 0.0081761425 0
-9.9999974 -2.5613816e-06 0
-9.9999968 -1.1794921e-08 0
-9.9999968 4.8749358e-07 0
-9.9999989 1.5367137e-06 0
-10.000003 1.9946122e-06 0
-10.000008 1.4120983e-06 0
-10.000009 7.1584495e-07 0
-10.000009 7.1606754e-07 0
-10.000009 7.1606185e-07 0
-10.000009 7.1605606e-07 0
-10.000009 7.1608067e-07 0
-10.000009 7.1647303e-07 0
-10.000009 7.1409692e-07 0
-10.000012 3.1446361e-06 0
-10.000041 6.0866261e-06 0
-10.00001 -7.0995423e-06 0
-9.9999964 5.2041152e-07 0
-9.9999961 9.7467222e-07 0
-9.999996 9.7452269e-07 0
-9.9999959 9.7477919e-07 0
-9.9999978 2.3033437e-06 0
-10.000007 2.846073e-06 0
-9.9999997 1.3972242e-06 0
-9.9999955 -0.0081751611 0
-9.9999732 0.0081761373 0
-9.9999948 -1.0773219e-06 0
-9.9999948 9.6288435e-07 0
-9.9999948 1.4625091e-06 0
-9.9999948 1.4627666e-06 0
-9.9999947 1.4612552e-06 0
-9.9999947 1.4613925e-06 0
-9.9999946 1.4613854e-06 0
-9.9999946 1.461391e-06 0
-9.9999946 1.4614148e-06 0
-9.9999946 1.4612671e-06 0
-9.9999942 1.948021e-06 0
-9.9999942 1.9491631e-06 0
-9.9999941 1.9492876e-06 0
-9.9999941 1.9494455e-06 0
-9.9999944 1.9666861e-06 0
-9.9999935 2.4292449e-06 0
-9.9999935 2.4349603e-06 0
-9.9999935 2.4349665e-06 0
-9.9999935 2.4327907e-06 0
-9.9999929 2.9239855e-06 0
-9.9999929 2.921653e-06 0
-9.9999929 3.4167463e-06 0
-9.9999924 5.9762265e-06 0
-9.9999922 -0.00817272 0
-9.999941 0.0081761203 0
-9.9999922 8.8970773e-07 0
-9.9999922 2.9086979e-06 0
-9.9999922 3.4083018e-06 0
-9.9999923 3.4186306e-06 0
-9.9999928 2.4251282e-06 0
-9.9999922 2.922771e-06 0
-9.9999916 3.4101816e-06 0
-9.9999915 3.409873e-06 0
-9.9999915 3.4099105e-06 0
-9.9999915 3.4098992e-06 0
-9.9999915 3.3959077e-06 0
-9.999991 3.9090567e-06 0
-9.9999909 3.9006165e-06 0
-9.9999909 3.9005169e-06 0
-9.9999909 3.9006825e-06 0
-9.9999908 3.9022211e-06 0
-9.9999907 3.9015499e-06 0
-9.9999908 3.9011763e-06 0
-9.9999902 4.3870481e-06 0
-9.9999895 4.8774883e-06 0
-9.9999894 4.8753109e-06 0
-9.9999894 5.3744593e-06 0
-9.9999892 7.4403846e-06 0
-9.9999892 -0.0081712383 0
-9.9999172 0.0081761134 0
-9.999989 2.399311e-06 0
-9.9999891 4.3769504e-06 0
-9.9999891 4.8767371e-06 0
-9.999989 4.8771688e-06 0
-9.9999889 4.8757316e-06 0
-9.9999883 4.8760572e-06 0
-9.9999883 5.3631933e-06 0
-9.9999882 5.3634862e-06 0
-9.9999882 5.36354e-06 0
-9.9999882 5.3633838e-06 0
-9.9999881 5.3033295e-06 0
-9.9999794 1.1746193e-05 0
-9.9999794 1.168539e-05 0
-9.9999794 1.1684888e-05 0
-9.9999784 1.2171806e-05 0
-9.9999783 1.2660581e-05 0
-9.9999783 1.2659555e-05 0
-9.9999783 1.2656724e-05 0
-9.9999782 1.266291e-05 0
-9.9999782 1.2663486e-05 0
-9.9999782 1.2663125e-05 0
-9.9999781 1.3155594e-05 0
-9.9999775 1.5720662e-05 0
-9.9999773 -0.0081629416 0
-9.9997802 0.0081760391 0
-9.9999771 1.0800156e-05 0
-9.9999767 1.2647876e-05 0
-9.9999767 1.3635252e-05 0
-9.9999755 1.4613109e-05 0
-9.9999756 1.461075e-05 0
-9.9999756 1.4610813e-05 0
-9.9999756 1.4607361e-05 0
-9.9999751 1.5100841e-05 0
-9.9999745 1.5097004e-05 0
-9.9999745 1.5584178e-05 0
-9.9999744 1.5585905e-05 0
-9.9999745 1.5594416e-05 0
-9.999974 1.5589364e-05 0
-9.9999741 1.6073866e-05 0
-9.9999735 1.6567877e-05 0
-9.9999734 1.6564391e-05 0
-9.9999733 1.6564415e-05 0
-9.9999733 1.6522386e-05 0
-9.9999693 2.0496324e-05 0
-9.9999692 2.0453714e-05 0
-9.9999687 2.0450723e-05 0
-9.9999687 2.1442559e-05 0
-9.9999686 2.350301e-05 0
-9.9999679 -0.0081546418 0
-9.9996461 0.0081759872 0
-9.9999672 1.9142931e-05 0
-9.9999669 2.0922753e-05 0
-9.9999669 2.1916053e-05 0
-9.9999664 2.2391308e-05 0
-9.9999653 2.3381536e-05 0
-9.9999652 2.3373318e-05 0
-9.9999652 2.3373872e-05 0
-9.9999652 2.3374249e-05 0
-9.9999652 2.3376223e-05 0
-9.9999646 2.3373406e-05 0
-9.9999646 2.3866505e-05 0
-9.999964 2.3862976e-05 0
-9.999964 2.4346504e-05 0
-9.9999629 2.5320029e-05 0
-9.9999624 2.5818217e-05 0
-9.9999623 2.58099e-05 0
-9.9999611 2.629659e-05 0
-9.9999611 2.6785293e-05 0
-9.9999612 2.6788469e-05 0
-9.9999612 2.6785509e-05 0
-9.9999612 2.6785752e-05 0
-9.9999611 2.7289004e-05 0
-9.9999611 2.9353657e-05 0
-9.999961 -0.0081492661 0
-9.9995624 0.0081775409 0
-9.9999666 1.833661e-05 0
-9.9999651 2.1429805e-05 0
-9.9999646 2.2416313e-05 0
-9.999964 2.2408861e-05 0
-9.9999635 2.2889055e-05 0
-9.9999629 2.3876579e-05 0
-9.999954 2.4364879e-05 0
-9.9999532 2.4835646e-05 0
-9.999952 2.5825839e-05 0
-9.9999515 2.6789956e-05 0
-9.9999514 2.6788531e-05 0
-9.9999509 2.6786567e-05 0
-9.9999509 2.7268353e-05 0
-9.9999503 2.7770859e-05 0
-9.9999498 2.775797e-05 0
-9.9999493 2.825181e-05 0
-9.9999493 2.8737495e-05 0
-9.9999493 2.8736106e-05 0
-9.9999409 2.8731196e-05 0
-9.9999403 2.971091e-05 0
-9.9999318 3.0192996e-05 0
-9.999932 3.0689693e-05 0
-9.9999322 3.2582413e-05 0
-9.9999365 -0.0081474226 0
-10.007226 0.0077237983 0
-10.008111 3.2589194e-05 0
-10.00811 2.9805229e-05 0
-10.008109 3.0794365e-05 0
-10.008108 3.1772996e-05 0
-10.008108 3.1767625e-05 0
-10.008108 3.1774783e-05 0
-10.008109 3.1274777e-05 0
-10.008125 3.1284911e-05 0
-10.008125 3.1284198e-05 0
-10.008124 3.0784446e-05 0
-10.008116 3.1775611e-05 0
-10.008116 3.225523e-05 0
-10.008115 3.2752198e-05 0
-10.008114 3.2747944e-05 0
-10.008114 3.3239183e-05 0
-10.008114 3.3235141e-05 0
-10.008114 3.3730488e-05 0
-10.008114 3.3729104e-05 0
-10.008114 3.3721774e-05 0
-10.008112 3.4718656e-05 0
-10.008113 3.4701341e-05 0
-10.008104 3.5674263e-05 0
-10.008105 3.3642992e-05 0
-10.007653 -0.0076894177 0
9.3664252 -3.8409611 0
-10.230002 -2.6000642 0
7.3208066 13.86684 0
6.9868982 -11.539868 0
-3.336488 -9.321844 0
3.2510433 1.376515 0
0.48648472 -6.9033117 0
-6.094613 -3.82305 0
0.48821379 4.5527211 0
-8.1788062 4.4118314 0
7.7155842 -13.108458 0
6.6677144 -0.58049644 0
-4.3471069 -5.3592848 0
0.47066039 10.792235 0
4.2772657 -5.8810409 0
-10.518457 3.5069866 0
-7.2727512 0.017311776 0
-16.447483 -17.868343 0
7.5440813 2.7678829 0
11.063471 11.182339 0
18.358794 -8.2041961 0
1.6981695 4.1009091 0
8.1077586 4.3718425 0
-2.6285072 22.95474 0
-9.4775321 5.5641588 0
5.5676099 5.7951124 0
-1.048643 -0.49585318 0
-0.90342675 -0.87038646 0
-6.8594512 -9.3114852 0
10.452951 0.93841597 0
0.58535108 -7.8399073 0
5.5166543 1.4055141 0
5.4045665 1.0266762 0
-0.63972024 5.271221 0
-16.137637 -6.0960562 0
-6.4156596 4.9429041 0
-0.63640299 -8.4394976 0
0.094135945 2.1333848 0
-2.4947895 5.5385588 0
-8.7535264 -0.81151623 0
3.2701573 3.9911721 0
-5.6118493 -0.96314747 0
-9.371776 6.4685751 0
3.9730117 -3.9741681 0
-1.3917277 11.922314 0
1.820688 -9.2572828 0
1.5164115 -0.85793667 0
14.724543 -4.9223053 0
-1.097056 -6.032542 0
-0.120926 9.3399097 0
8.2362888 -6.02101 0
1.8336804 1.5751713 0
-1.3531865 -3.2956958 0
-6.0478303 3.2918615 0
5.0230029 9.6947238 0
16.649797 5.4701602 0
-13.010329 0.74011145 0
-8.59126 0.29571423 0
-6.5656893 13.293011 0
3.5120223 -0.097093793 0
-6.216748 -5.0492363 0
1.4887482 -0.57128555 0
-2.2846082 0.9718445 0
-10.477231 3.0473654 0
17.938334 -0.40098034 0
7.946891 -4.3368515 0
-9.5649728 5.9748671 0
11.259513 -12.180042 0
0.86261543 2.4748787 0
-3.9763664 8.3380644 0
-3.7549229 0.71151011 0
4.8427283 10.182605 0
5.7155945 3.7817063 0
4.6090719 -1.2018244 0
-8.788896 -0.53225218 0
-6.5485067 -6.7367909 0
-1.9779405 -10.564389 0
-11.191488 -4.7619361 0
9.8036473 -1.9905994 0
-3.1547152 2.3958637 0
6.1798047 4.9494709 0
-6.4654452 4.906521 0
11.166937 -6.0989304 0
14.447549 -1.6631301 0
10.257827 -14.140418 0
-1.0462176 -14.75845 0
-15.103231 0.42521146 0
-7.6897792 -4.0990991 0
-11.7454 9.6501536 0
1.0376514 -5.4207544 0