# vtk DataFile Version 4.0
hesp visualization file
ASCII
DATASET UNSTRUCTURED_GRID
POINTS 1250 double
30.2695 1.1270161 4
30.262475 2.2439475 4
30.25906 3.3670901 4
30.25906 4.4895833 4
30.25906 5.6120467 4
30.25906 6.7345081 4
30.25906 7.8569705 4
30.25906 8.9794322 4
30.25906 10.101894 4
30.25906 11.224356 4
30.25906 12.346819 4
30.25906 13.469277 4
30.25906 14.591739 4
30.25906 15.714199 4
30.25906 16.836661 4
30.25906 17.959184 4
30.25906 19.081646 4
30.25906 20.204109 4
30.25906 21.326571 4
30.25906 22.449018 4
30.25906 23.57148 4
30.25906 24.693942 4
30.25906 25.816402 4
30.25906 26.938841 4
30.259066 28.060081 4
31.391117 1.1173444 4
31.141841 2.2457097 4
31.067521 3.3676231 4
31.067522 4.4900525 4
31.067522 5.6125135 4
31.067522 6.7349759 4
31.067521 7.8574378 4
31.067521 8.9799001 4
31.067521 10.102362 4
31.067521 11.224824 4
31.067521 12.347286 4
31.067521 13.469751 4
31.067519 14.592212 4
31.067521 15.714676 4
31.067519 16.837138 4
31.067519 17.959563 4
31.067518 19.082025 4
31.067518 20.204486 4
31.067518 21.326948 4
31.067518 22.44942 4
31.067518 23.571882 4
31.067518 24.694344 4
31.067518 25.816807 4
31.067518 26.939291 4
31.06751 28.062356 4
31.663299 1.1254853 4
31.587637 2.244737 4
31.585683 3.36733 4
31.585683 4.4898067 4
31.585683 5.612269 4
31.585683 6.734731 4
31.585683 7.8571931 4
31.585683 8.9796551 4
31.585683 10.102117 4
31.585683 11.224579 4
31.585683 12.347041 4
31.585683 13.469503 4
31.585683 14.591965 4
31.585683 15.714427 4
31.585683 16.836889 4
31.585683 17.95935 4
31.585683 19.081812 4
31.585683 20.204274 4
31.585683 21.326736 4
31.585683 22.449198 4
31.585683 23.57166 4
31.585683 24.694122 4
31.585683 25.816584 4
31.585683 26.939031 4
31.585686 28.060677 4
32.587582 1.1220786 4
32.586462 2.2450504 4
32.393885 3.3674199 4
32.393881 4.4898745 4
32.393881 5.6123365 4
32.393881 6.7347985 4
32.393881 7.8572606 4
32.393881 8.9797226 4
32.393881 10.102185 4
32.393881 11.224647 4
32.393881 12.347109 4
32.393881 13.469571 4
32.393881 14.592033 4
32.393881 15.714495 4
32.393881 16.836957 4
32.393881 17.95942 4
32.393881 19.081882 4
32.393881 20.204344 4
32.393881 21.326806 4
32.393881 22.449268 4
32.393881 23.57173 4
32.393881 24.694192 4
32.393881 25.816655 4
32.39388 26.939122 4
32.393883 28.061568 4
32.912057 1.1227845 4
32.912059 2.2449258 4
32.912275 3.3673856 4
32.912276 4.4898482 4
32.912276 5.6123102 4
32.912276 6.7347723 4
32.912276 7.8572343 4
32.912276 8.9796964 4
32.912276 10.102158 4
32.912276 11.22462 4
32.912276 12.347083 4
32.912276 13.469545 4
32.912276 14.592007 4
32.912276 15.714469 4
32.912276 16.836931 4
32.912276 17.959393 4
32.912276 19.081855 4
32.912276 20.204317 4
32.912276 21.326779 4
32.912276 22.449241 4
32.912276 23.571703 4
32.912276 24.694165 4
32.912276 25.816627 4
32.912276 26.939087 4
32.912276 28.061229 4
34.034772 1.1227838 4
34.034772 2.2449262 4
34.034772 3.3673861 4
34.034772 4.4898482 4
34.034772 5.6123102 4
34.034772 6.7347723 4
34.034772 7.8572343 4
34.034772 8.9796964 4
34.034772 10.102158 4
34.034772 11.22462 4
34.034772 12.347083 4
34.034772 13.469545 4
34.034772 14.592007 4
34.034772 15.714469 4
34.034772 16.836931 4
34.034772 17.959393 4
34.034772 19.081855 4
34.034772 20.204317 4
34.034772 21.326779 4
34.034772 22.449241 4
34.034772 23.571703 4
34.034772 24.694165 4
34.034772 25.816627 4
34.034772 26.939087 4
34.034772 28.06123 4
35.157234 1.1227837 4
35.157234 2.2449262 4
35.157234 3.3673861 4
35.157234 4.4898482 4
35.157234 5.6123102 4
35.157234 6.7347723 4
35.157234 7.8572343 4
35.157234 8.9796964 4
35.157234 10.102158 4
35.157234 11.22462 4
35.157234 12.347083 4
35.157234 13.469545 4
35.157234 14.592007 4
35.157234 15.714469 4
35.157234 16.836931 4
35.157234 17.959393 4
35.157234 19.081855 4
35.157234 20.204317 4
35.157234 21.326779 4
35.157234 22.449241 4
35.157234 23.571703 4
35.157234 24.694165 4
35.157234 25.816627 4
35.157234 26.939087 4
35.157234 28.06123 4
36.279696 1.1227837 4
36.279696 2.2449262 4
36.279696 3.3673861 4
36.279696 4.4898482 4
36.279696 5.6123102 4
36.279696 6.7347723 4
36.279696 7.8572343 4
36.279696 8.9796964 4
36.279696 10.102158 4
36.279696 11.22462 4
36.279696 12.347083 4
36.279696 13.469545 4
36.279696 14.592007 4
36.279696 15.714469 4
36.279696 16.836931 4
36.279696 17.959393 4
36.279696 19.081855 4
36.279696 20.204317 4
36.279696 21.326779 4
36.279696 22.449241 4
36.279696 23.571703 4
36.279696 24.694165 4
36.279696 25.816627 4
36.279696 26.939087 4
36.279696 28.06123 4
37.402158 1.1227837 4
37.402158 2.2449262 4
37.402158 3.3673861 4
37.402158 4.4898482 4
37.402158 5.6123102 4
37.402158 6.7347723 4
37.402158 7.8572343 4
37.402158 8.9796964 4
37.402158 10.102158 4
37.402158 11.22462 4
37.402158 12.347083 4
37.402158 13.469545 4
37.402158 14.592007 4
37.402158 15.714469 4
37.402158 16.836931 4
37.402158 17.959393 4
37.402158 19.081855 4
37.402158 20.204317 4
37.402158 21.326779 4
37.402158 22.449241 4
37.402158 23.571703 4
37.402158 24.694165 4
37.402158 25.816627 4
37.402158 26.939087 4
37.402158 28.06123 4
38.52462 1.1227837 4
38.52462 2.2449262 4
38.52462 3.3673861 4
38.52462 4.4898482 4
38.52462 5.6123102 4
38.52462 6.7347723 4
38.52462 7.8572343 4
38.52462 8.9796964 4
38.52462 10.102158 4
38.52462 11.22462 4
38.52462 12.347083 4
38.52462 13.469545 4
38.52462 14.592007 4
38.52462 15.714469 4
38.52462 16.836931 4
38.52462 17.959393 4
38.52462 19.081855 4
38.52462 20.204317 4
38.52462 21.326779 4
38.52462 22.449241 4
38.52462 23.571703 4
38.52462 24.694165 4
38.52462 25.816627 4
38.52462 26.939087 4
38.52462 28.06123 4
39.647083 1.1227837 4
39.647083 2.2449262 4
39.647083 3.3673861 4
39.647083 4.4898482 4
39.647083 5.6123102 4
39.647083 6.7347723 4
39.647083 7.8572343 4
39.647083 8.9796964 4
39.647083 10.102158 4
39.647083 11.22462 4
39.647083 12.347083 4
39.647083 13.469545 4
39.647083 14.592007 4
39.647083 15.714469 4
39.647083 16.836931 4
39.647083 17.959393 4
39.647083 19.081855 4
39.647083 20.204317 4
39.647083 21.326779 4
39.647083 22.449241 4
39.647083 23.571703 4
39.647083 24.694165 4
39.647083 25.816627 4
39.647083 26.939087 4
39.647083 28.06123 4
40.769545 1.1227837 4
40.769545 2.2449262 4
40.769545 3.3673861 4
40.769545 4.4898482 4
40.769545 5.6123102 4
40.769545 6.7347723 4
40.769545 7.8572343 4
40.769545 8.9796964 4
40.769545 10.102158 4
40.769545 11.22462 4
40.769545 12.347083 4
40.769545 13.469545 4
40.769545 14.592007 4
40.769545 15.714469 4
40.769545 16.836931 4
40.769545 17.959393 4
40.769545 19.081855 4
40.769545 20.204317 4
40.769545 21.326779 4
40.769545 22.449241 4
40.769545 23.571703 4
40.769545 24.694165 4
40.769545 25.816627 4
40.769545 26.939087 4
40.769545 28.06123 4
41.892007 1.1227837 4
41.892007 2.2449262 4
41.892007 3.3673861 4
41.892007 4.4898482 4
41.892007 5.6123102 4
41.892007 6.7347723 4
41.892007 7.8572343 4
41.892007 8.9796964 4
41.892007 10.102158 4
41.892007 11.22462 4
41.892007 12.347083 4
41.892007 13.469545 4
41.892007 14.592007 4
41.892007 15.714469 4
41.892007 16.836931 4
41.892007 17.959393 4
41.892007 19.081855 4
41.892007 20.204317 4
41.892007 21.326779 4
41.892007 22.449241 4
41.892007 23.571703 4
41.892007 24.694165 4
41.892007 25.816627 4
41.892007 26.939087 4
41.892007 28.06123 4
43.014469 1.1227837 4
43.014469 2.2449262 4
43.014469 3.3673861 4
43.014469 4.4898482 4
43.014469 5.6123102 4
43.014469 6.7347723 4
43.014469 7.8572343 4
43.014469 8.9796964 4
43.014469 10.102158 4
43.014469 11.22462 4
43.014469 12.347083 4
43.014469 13.469545 4
43.014469 14.592007 4
43.014469 15.714469 4
43.014469 16.836931 4
43.014469 17.959393 4
43.014469 19.081855 4
43.014469 20.204317 4
43.014469 21.326779 4
43.014469 22.449241 4
43.014469 23.571703 4
43.014469 24.694165 4
43.014469 25.816627 4
43.014469 26.939087 4
43.014469 28.06123 4
44.136931 1.1227837 4
44.136931 2.2449262 4
44.136931 3.3673861 4
44.136931 4.4898482 4
44.136931 5.6123102 4
44.136931 6.7347723 4
44.136931 7.8572343 4
44.136931 8.9796964 4
44.136931 10.102158 4
44.136931 11.22462 4
44.136931 12.347083 4
44.136931 13.469545 4
44.136931 14.592007 4
44.136931 15.714469 4
44.136931 16.836931 4
44.136931 17.959393 4
44.136931 19.081855 4
44.136931 20.204317 4
44.136931 21.326779 4
44.136931 22.449241 4
44.136931 23.571703 4
44.136931 24.694165 4
44.136931 25.816627 4
44.136931 26.939087 4
44.136931 28.06123 4
45.259393 1.1227837 4
45.259393 2.2449262 4
45.259393 3.3673861 4
45.259393 4.4898482 4
45.259393 5.6123102 4
45.259393 6.7347723 4
45.259393 7.8572343 4
45.259393 8.9796964 4
45.259393 10.102158 4
45.259393 11.22462 4
45.259393 12.347083 4
45.259393 13.469545 4
45.259393 14.592007 4
45.259393 15.714469 4
45.259393 16.836931 4
45.259393 17.959393 4
45.259393 19.081855 4
45.259393 20.204317 4
45.259393 21.326779 4
45.259393 22.449241 4
45.259393 23.571703 4
45.259393 24.694165 4
45.259393 25.816627 4
45.259393 26.939087 4
45.259393 28.06123 4
46.381855 1.1227837 4
46.381855 2.2449262 4
46.381855 3.3673861 4
46.381855 4.4898482 4
46.381855 5.6123102 4
46.381855 6.7347723 4
46.381855 7.8572343 4
46.381855 8.9796964 4
46.381855 10.102158 4
46.381855 11.22462 4
46.381855 12.347083 4
46.381855 13.469545 4
46.381855 14.592007 4
46.381855 15.714469 4
46.381855 16.836931 4
46.381855 17.959393 4
46.381855 19.081855 4
46.381855 20.204317 4
46.381855 21.326779 4
46.381855 22.449241 4
46.381855 23.571703 4
46.381855 24.694165 4
46.381855 25.816627 4
46.381855 26.939087 4
46.381855 28.06123 4
47.504317 1.1227837 4
47.504317 2.2449262 4
47.504317 3.3673861 4
47.504317 4.4898482 4
47.504317 5.6123102 4
47.504317 6.7347723 4
47.504317 7.8572343 4
47.504317 8.9796964 4
47.504317 10.102158 4
47.504317 11.22462 4
47.504317 12.347083 4
47.504317 13.469545 4
47.504317 14.592007 4
47.504317 15.714469 4
47.504317 16.836931 4
47.504317 17.959393 4
47.504317 19.081855 4
47.504317 20.204317 4
47.504317 21.326779 4
47.504317 22.449241 4
47.504317 23.571703 4
47.504317 24.694165 4
47.504317 25.816627 4
47.504317 26.939087 4
47.504317 28.06123 4
48.626779 1.1227837 4
48.626779 2.2449262 4
48.626779 3.3673861 4
[...]
POINT_DATA 1250
SCALARS m double
LOOKUP_TABLE default
1
1
1
1
1
1
1
1
1
1
1
1
1
1
1
1
1
1
1
1
1
1
1
1
1
1
1
1
1
1
1
1
1
1
1
1
1
1
1
1
1
1
1
1
1
1
1
1
1
1
1
1
1
1
1
1
1
1
1
1
1
1
1
1
1
1
1
1
1
1
1
1
1
1
1
1
1
1
1
1
1
1
1
1
1
1
1
1
1
1
1
1
1
1
1
1
1
1
1
1
1
1
1
1
1
1
1
1
1
1
1
1
1
1
1
1
1
1
1
1
1
1
1
1
1
1
1
1
1
1
1
1
1
1
1
1
1
1
1
1
1
1
1
1
1
1
1
1
1
1
1
1
1
1
1
1
1
1
1
1
1
1
1
1
1
1
1
1
1
1
1
1
1
1
1
1
1
1
1
1
1
1
1
1
1
1
1
1
1
1
1
1
1
1
1
1
1
1
1
1
1
1
1
1
1
1
1
1
1
1
1
1
1
1
1
1
1
1
1
1
1
1
1
1
1
1
1
1
1
1
1
1
1
1
1
1
1
1
1
1
1
1
1
1
1
1
1
1
1
1
1
1
1
1
1
1
1
1
1
1
1
1
1
1
1
1
1
1
1
1
1
1
1
1
1
1
1
1
1
1
1
1
1
1
1
1
1
1
1
1
1
1
1
1
1
1
1
1
1
1
1
1
1
1
1
1
1
1
1
1
1
1
1
1
1
1
1
1
1
1
1
1
1
1
1
1
1
1
1
1
1
1
1
1
1
1
1
1
1
1
1
1
1
1
1
1
1
1
1
1
1
1
1
1
1
1
1
1
1
1
1
1
1
1
1
1
1
1
1
1
1
1
1
1
1
1
1
1
1
1
1
1
1
1
1
1
1
1
1
1
1
1
1
1
1
1
1
1
1
1
1
1
1
1
1
1
1
1
1
1
1
1
1
1
1
1
1
1
1
1
1
1
1
1
1
1
1
1
1
1
1
1
1
1
1
1
1
1
1
1
1
1
1
1
1
1
1
1
1
1
1
1
1
1
1
1
1
1
1
1
1
1
1
1
1
1
1
1
1
1
1
1
1
1
1
1
1
1
1
1
1
1
1
1
1
1
1
1
1
1
1
1
1
1
1
1
1
1
1
1
1
1
1
1
1
1
1
1
1
1
1
1
1
1
1
1
1
1
1
1
1
1
1
1
1
1
1
1
1
1
1
1
1
1
1
1
1
1
1
1
1
1
1
1
1
1
1
1
1
1
1
1
1
1
1
1
1
1
1
1
1
1
1
1
1
1
1
1
1
1
1
1
1
1
1
1
1
1
1
1
1
1
1
1
1
1
1
1
1
1
1
1
1
1
1
1
1
1
1
1
1
1
1
1
1
1
1
1
1
1
1
1
1
1
1
1
1
1
1
1
1
1
1
1
1
1
1
1
1
1
1
1
1
1
1
1
1
1
1
1
1
1
1
1
1
1
1
1
1
1
1
1
1
1
1
1
1
1
1
1
1
1
1
1
1
1
1
1
1
1
1
1
1
1
1
1
1
1
1
1
1
1
1
1
1
1
1
1
1
1
1
1
1
1
1
1
1
1
1
1
1
1
1
1
1
1
1
1
1
1
1
1
1
1
1
1
1
1
1
1
1
1
1
1
1
1
1
1
1
1
1
1
1
1
1
1
1
1
1
1
1
1
1
1
1
1
1
1
1
1
1
1
1
1
1
1
1
1
1
1
1
1
1
1
1
1
1
1
1
1
1
1
1
1
1
1
1
1
1
1
1
1
1
1
1
1
1
1
1
1
1
1
1
1
1
1
1
1
1
1
1
1
1
1
1
1
1
1
1
1
1
1
1
1
1
1
1
1
1
1
1
1
1
1
1
1
1
1
1
1
1
1
1
1
1
1
1
1
1
1
1
1
1
1
1
1
1
1
1
1
1
1
1
1
1
1
1
1
1
1
1
1
1
1
1
1
1
1
1
1
1
1
1
1
1
1
1
1
1
1
1
1
1
1
1
1
1
1
1
1
1
1
1
1
1
1
1
1
1
1
1
1
1
1
1
1
1
1
1
1
1
1
1
1
1
1
1
1
1
1
1
1
1
1
1
1
1
1
1
1
1
1
1
1
1
1
1
1
1
1
1
1
1
1
1
1
1
1
1
1
1
1
1
1
1
1
1
1
1
1
1
1
1
1
1
1
1
1
1
1
1
1
1
1
1
1
1
1
1
1
1
1
1
1
1
1
1
1
1
1
1
1
1
1
1
1
1
1
1
1
1
1
1
1
1
1
1
1
1
1
1
1
1
1
1
1
1
1
1
1
1
1
1
1
1
1
1
1
1
1
1
1
1
1
1
1
1
1
1
1
1
1
1
1
1
1
1
1
1
1
1
1
1
1
1
1
1
1
1
1
1
1
1
1
1
1
1
1
1
1
1
1
1
1
1
1
1
1
1
1
1
1
1
1
1
1
1
1
1
1
1
1
1
1
1
1
1
1
1
1
1
1
1
1
1
1
1
1
1
1
1
1
1
1
1
1
1
1
1
1
1
1
1
1
1
1
1
1
1
1
1
1
1
1
1
1
1
1
1
1
1
1
1
1
1
1
1
1
1
1
1
1
1
1
1
1
1
1
1
1
1
1
1
1
1
1
1
1
1
1
1
1
1
1
1
1
1
1
1
1
1
1
1
1
1
1
1
1
1
1
1
1
1
1
1
1
1
1
1
1
1
1
1
1
1
1
1
1
1
1
1
1
1
1
1
1
1
1
1
1
1
1
1
1
1
1
1
1
1
1
1
1
1
1
1
1
1
1
1
1
1
1
1
1
1
1
1
1
1
1
VECTORS v double
-9.9799252 0.098183183 0
-10.00891 -0.025198681 0
-10.009565 -0.0080196666 0
-10.009555 -0.0071370822 0
-10.009555 -0.0071006243 0
-10.009555 -0.0071168694 0
-10.009555 -0.007108807 0
-10.009555 -0.0071185055 0
-10.009555 -0.0071146285 0
-10.009555 -0.0071146412 0
-10.009555 -0.0070986825 0
-10.009554 -0.007215306 0
-10.009554 -0.0072046285 0
-10.009554 -0.0072528355 0
-10.009554 -0.0072494688 0
-10.009555 -0.0056871094 0
-10.009555 -0.0056871425 0
-10.009555 -0.0056687134 0
-10.009555 -0.0056682243 0
-10.009555 -0.006052862 0
-10.009555 -0.0060528635 0
-10.009555 -0.0060528194 0
-10.009554 -0.0061103805 0
-10.009554 -0.0067534858 0
-10.009458 -0.035057108 0
-9.711559 -0.65181027 0
10.917562 0.022767653 0
10.00979 0.0073000829 0
10.00979 0.006354928 0
10.00979 0.0063225175 0
10.00979 0.006335767 0
10.009789 0.0063291861 0
10.009789 0.0063371026 0
10.009789 0.0063339378 0
10.009789 0.0063339397 0
10.009789 0.0063209164 0
10.009784 0.0064161021 0
10.009775 0.0064074007 0
10.009784 0.0064467295 0
10.009774 0.0064439425 0
10.009776 0.005192231 0
10.009773 0.0051922363 0
10.009773 0.0051771947 0
10.009773 0.0051768 0
10.009773 0.0054906361 0
10.009772 0.0054906356 0
10.009772 0.0054906058 0
10.009772 0.0055376033 0
10.009768 0.0061834823 0
10.009672 0.030176199 0
14.970645 0.58986348 0
-10.014862 -0.0041461098 0
-10.008712 -0.0014173323 0
-10.008701 -0.0010745449 0
-10.008701 -0.0010696488 0
-10.008701 -0.0010696447 0
-10.008701 -0.0010696468 0
-10.008701 -0.0010696444 0
-10.008701 -0.0010696453 0
-10.008701 -0.0010696453 0
-10.008701 -0.0010696501 0
-10.008701 -0.0010696173 0
-10.008701 -0.0010696426 0
-10.008701 -0.0010696057 0
-10.008701 -0.001069578 0
-10.008701 -0.0011167219 0
-10.008701 -0.0011167128 0
-10.008701 -0.0011167173 0
-10.008701 -0.0011167186 0
-10.008701 -0.0011166146 0
-10.008701 -0.0011166159 0
-10.008701 -0.0011166109 0
-10.008701 -0.0011165054 0
-10.0087 -0.0014696669 0
-10.008649 -0.016784701 0
11.246771 -0.016354048 0
11.240518 0.0033218102 0
10.00854 0.0011625115 0
10.008449 0.00087749412 0
10.008449 0.00087377231 0
10.008449 0.00087377221 0
10.008449 0.00087377219 0
10.008449 0.00087377223 0
10.008449 0.00087377222 0
10.008449 0.00087377223 0
10.008449 0.00087377242 0
10.008449 0.00087376937 0
10.008449 0.00087378778 0
10.008449 0.00087376767 0
10.008449 0.00087374901 0
10.008449 0.00091187487 0
10.008449 0.00091187261 0
10.008449 0.00091187259 0
10.008449 0.00091187263 0
10.008449 0.00091186676 0
10.008449 0.00091186678 0
10.008449 0.00091186265 0
10.008449 0.00091183361 0
10.008448 0.0011653726 0
10.008472 0.0088687071 0
-10.041661 0.0024104769 0
-10.04241 -1.2106993e-05 0
-10.007127 -3.7258719e-05 0
-10.007115 -1.464268e-07 0
-10.007115 2.6133585e-07 0
-10.007115 2.6135833e-07 0
-10.007115 2.6135804e-07 0
-10.007115 2.6135849e-07 0
-10.007115 2.6135834e-07 0
-10.007115 2.6135845e-07 0
-10.007115 2.6135647e-07 0
-10.007115 2.6135593e-07 0
-10.007115 2.6136411e-07 0
-10.007115 2.613565e-07 0
-10.007115 2.6120296e-07 0
-10.007115 2.7285955e-07 0
-10.007115 2.7273872e-07 0
-10.007115 2.727369e-07 0
-10.007115 2.7273429e-07 0
-10.007115 2.7274184e-07 0
-10.007115 2.7273903e-07 0
-10.007115 2.7276299e-07 0
-10.007115 2.8785952e-07 0
-10.007114 -1.5706034e-05 0
-10.007083 -0.0024265873 0
-10.000016 0.0023856975 0
-10.000018 1.4011124e-05 0
-10.00001 -9.7678407e-07 0
-10.000009 -2.0835511e-11 0
-10.000009 1.1073781e-11 0
-10.000009 1.0908675e-11 0
-10.000009 1.0908666e-11 0
-10.000009 1.0907979e-11 0
-10.000009 1.0910265e-11 0
-10.000009 1.0907281e-11 0
-10.000009 1.0908805e-11 0
-10.000009 1.091037e-11 0
-10.000009 1.0907326e-11 0
-10.000009 1.0908635e-11 0
-10.000009 9.7489876e-12 0
-10.000009 1.2042232e-11 0
-10.000009 1.1382834e-11 0
-10.000009 1.1384485e-11 0
-10.000009 1.1384689e-11 0
-10.000009 1.1385357e-11 0
-10.000009 1.1365748e-11 0
-10.000009 4.5402501e-11 0
-10.000009 1.5453508e-08 0
-10.000009 -1.4977736e-05 0
-10.000007 -0.0023847396 0
-10 0.0023836589 0
-10 1.4977883e-05 0
-10 -1.5445675e-08 0
-10 -3.3480645e-11 0
-10 1.7666503e-14 0
-10 9.2019462e-17 0
-10 7.485678e-17 0
-10 -6.0420746e-16 0
-10 1.6785416e-15 0
-10 -1.3014905e-15 0
-10 5.3864741e-17 0
-10 1.4121828e-15 0
-10 -1.2938018e-15 0
-10 1.9672531e-17 0
-10 1.0699881e-16 0
-10 1.5076563e-15 0
-10 -1.3450517e-15 0
-10 7.7285804e-17 0
-10 1.3740347e-16 0
-10 1.390124e-15 0
-10 -1.8499394e-14 0
-10 3.4018452e-11 0
-10 1.5446339e-08 0
-10 -1.4977883e-05 0
-10 -0.0023836589 0
-10 0.0023836589 0
-10 1.4977883e-05 0
-10 -1.5446343e-08 0
-10 -3.4018774e-11 0
-10 1.7592055e-14 0
-10 1.4869775e-17 0
-10 -2.0344593e-18 0
-10 -6.8109732e-16 0
-10 1.601389e-15 0
-10 -1.3784599e-15 0
-10 -2.2959216e-17 0
-10 1.3354511e-15 0
-10 -1.3703717e-15 0
-10 -5.7761354e-17 0
-10 2.7332024e-17 0
-10 1.4251731e-15 0
-10 -1.4271571e-15 0
-10 -4.9259903e-18 0
-10 5.5147759e-17 0
-10 1.3081101e-15 0
-10 -1.858176e-14 0
-10 3.4018371e-11 0
-10 1.5446339e-08 0
-10 -1.4977883e-05 0
-10 -0.0023836589 0
-10 0.0023836589 0
-10 1.4977883e-05 0
-10 -1.5446339e-08 0
-10 -3.4018773e-11 0
-10 1.7591929e-14 0
-10 1.4755811e-17 0
-10 -2.0278113e-18 0
-10 -6.8121418e-16 0
-10 1.6012931e-15 0
-10 -1.3783686e-15 0
-10 -2.3119412e-17 0
-10 1.3351417e-15 0
-10 -1.3703791e-15 0
-10 -5.7650309e-17 0
-10 2.7409427e-17 0
-10 1.4252359e-15 0
-10 -1.4271129e-15 0
-10 -4.9272391e-18 0
-10 5.5158863e-17 0
-10 1.3080149e-15 0
-10 -1.8581908e-14 0
-10 3.4018372e-11 0
-10 1.5446339e-08 0
-10 -1.4977883e-05 0
-10 -0.0023836589 0
-10 0.0023836589 0
-10 1.4977883e-05 0
-10 -1.5446339e-08 0
-10 -3.4017996e-11 0
-10 1.8382592e-14 0
-10 5.2402305e-17 0
-10 -2.1093214e-18 0
-10 -6.8164533e-16 0
-10 1.6013653e-15 0
-10 -1.3783191e-15 0
-10 -2.3608605e-17 0
-10 1.3345099e-15 0
-10 -1.371432e-15 0
-10 -5.6917631e-17 0
-10 2.7930152e-17 0
-10 1.4257295e-15 0
-10 -1.4272963e-15 0
-10 -4.9287002e-18 0
-10 5.5333136e-17 0
-10 1.3074814e-15 0
-10 -1.8582432e-14 0
-10 3.4018371e-11 0
-10 1.5446339e-08 0
-10 -1.4977883e-05 0
-10 -0.0023836589 0
-10 0.0023836589 0
-10 1.4977883e-05 0
-10 -1.5446338e-08 0
-10 -3.7166628e-11 0
-10 -3.1300141e-12 0
-10 5.8277137e-16 0
-10 7.1638557e-19 0
-10 -6.8055412e-16 0
-10 1.6013136e-15 0
-10 -1.3782496e-15 0
-10 -2.2675948e-17 0
-10 1.335926e-15 0
-10 -1.3691645e-15 0
-10 -5.8716406e-17 0
-10 2.7114744e-17 0
-10 1.424711e-15 0
-10 -1.4272279e-15 0
-10 -4.9301909e-18 0
-10 5.5714953e-17 0
-10 1.3086406e-15 0
-10 -1.8581798e-14 0
-10 3.4018374e-11 0
-10 1.5446339e-08 0
-10 -1.4977883e-05 0
-10 -0.0023836589 0
-10 0.0023836589 0
-10 1.4977883e-05 0
-10 -1.5446339e-08 0
-10 -3.4018882e-11 0
-9.9999999 1.7472175e-14 0
-9.9999999 1.4828807e-17 0
-9.9999999 -1.8770354e-18 0
-9.9999999 -6.8027486e-16 0
-9.9999999 1.6011443e-15 0
-9.9999999 -1.3781228e-15 0
-9.9999999 -2.2546508e-17 0
-9.9999999 1.3360453e-15 0
-9.9999999 -1.3685125e-15 0
-9.9999999 -5.9307509e-17 0
-9.9999999 2.7041417e-17 0
-9.9999999 1.430095e-15 0
-9.9999999 -1.1963727e-15 0
-9.9999999 2.3050993e-16 0
-9.9999999 -1.6837617e-15 0
-9.9999999 1.464999e-15 0
-9.9999999 -1.6675826e-14 0
-9.9999999 3.4018374e-11 0
-9.9999999 1.5446339e-08 0
-9.9999999 -1.4977883e-05 0
-9.9999999 -0.0023836589 0
-9.9999999 0.0023836589 0
-9.9999999 1.4977881e-05 0
-9.9999999 -1.5448452e-08 0
-9.9999999 -3.0889768e-11 0
-9.9999999 3.1652109e-12 0
-9.9999999 -5.8119142e-16 0
-9.9999999 -4.5257505e-18 0
-9.9999999 -6.817019e-16 0
-9.9999999 -3.0020054e-16 0
-9.9999999 -3.2806258e-15 0
-9.9999999 -1.5357213e-17 0
-9.9999999 1.3430436e-15 0
-9.9999999 -1.3719396e-15 0
-9.9999999 -5.6220609e-17 0
-9.9999999 2.7699524e-17 0
-9.9999999 1.3976769e-15 0
-9.9999999 -1.7137454e-12 0
-9.9999999 -1.7123505e-12 0
-9.9999999 -1.7001684e-12 0
-9.9999999 -1.6988041e-12 0
-9.9999999 -1.8522434e-14 0
-9.9999999 3.4018373e-11 0
-9.9999999 1.5446339e-08 0
-9.9999999 -1.4977883e-05 0
-9.9999999 -0.0023836589 0
-9.9999999 0.0023836589 0
-9.9999999 1.4977884e-05 0
-9.9999999 -1.544601e-08 0
-9.9999998 -3.4019435e-11 0
-9.9999998 1.6926895e-14 0
-9.9999998 -2.254801e-17 0
-9.9999998 2.863703e-17 0
-9.9999998 -6.5062847e-16 0
-9.9999998 1.4477128e-15 0
-9.9999998 -1.5387077e-15 0
-9.9999998 -3.1330377e-13 0
-9.9999998 -3.1194068e-13 0
-9.9999998 -1.3708899e-15 0
-9.9999998 -5.5180594e-17 0
-9.9999998 2.925572e-17 0
-9.9999998 1.4244071e-15 0
-9.9999998 -1.4004761e-15 0
-9.9999997 2.1708965e-17 0
-9.9999997 1.9367563e-15 0
-9.9999996 -1.0050624e-12 0
-9.9999996 -1.0268454e-12 0
-9.9999996 3.4018362e-11 0
-9.9999996 1.5446339e-08 0
-9.9999996 -1.4977883e-05 0
-9.9999996 -0.0023836589 0
-9.9999996 0.0023836589 0
-9.9999996 1.4977886e-05 0
-9.9999996 -1.5444227e-08 0
-9.9999996 -3.4000841e-11 0
-9.9999996 1.6742966e-14 0
-9.9999996 1.7917323e-17 0
-9.9999996 -6.1634482e-13 0
-9.9999996 -6.8170956e-13 0
-9.9999996 -2.9803762e-13 0
-9.9999996 -2.3630674e-13 0
-9.9999996 -1.4978244e-17 0
-9.9999996 4.9345214e-16 0
-9.9999996 -2.1961968e-15 0
-9.9999996 2.8385598e-16 0
-9.9999996 8.072099e-16 0
-9.9999996 1.7917359e-15 0
-9.9999996 1.0943888e-12 0
-9.9999996 1.095998e-12 0
-9.9999996 1.7002775e-12 0
-9.9999996 1.7015049e-12 0
-9.9999995 -1.8554435e-14 0
-9.9999995 3.4018372e-11 0
-9.9999995 1.5446339e-08 0
-9.9999995 -1.4977885e-05 0
-9.9999995 -0.0023836589 0
-9.9999995 0.0023836589 0
-9.9999995 1.4977883e-05 0
-9.9999995 -1.5446668e-08 0
-9.9999995 -3.4018785e-11 0
-9.9999995 1.7593167e-14 0
-9.9999995 3.5282171e-17 0
-9.9999995 1.7905724e-17 0
-9.9999994 -6.8355183e-16 0
-9.9999993 1.5424918e-15 0
-9.9999993 -1.4359787e-15 0
-9.9999993 3.132518e-13 0
-9.9999993 3.1461374e-13 0
-9.9999993 -1.1932283e-15 0
-9.9999993 -2.0719346e-12 0
-9.9999993 -4.6310779e-12 0
-9.9999993 1.8088041e-13 0
-9.9999993 2.7357676e-12 0
-9.9999992 -2.8089808e-16 0
-9.9999992 -6.4841275e-17 0
-9.9999992 1.0080649e-12 0
-9.9999992 9.8830883e-13 0
-9.9999992 3.401841e-11 0
-9.9999992 1.5446339e-08 0
-9.9999992 -1.4977883e-05 0
-9.9999991 -0.0023836589 0
-9.9999991 0.0023836589 0
-9.9999991 1.4977883e-05 0
-9.9999991 -1.5446339e-08 0
-9.9999991 -3.401791e-11 0
-9.9999991 1.8416565e-14 0
-9.9999991 -5.284139e-13 0
-9.9999991 8.7929171e-14 0
-9.9999991 6.8034748e-13 0
-9.9999991 3.0314289e-13 0
-9.9999991 2.3545286e-13 0
-9.9999991 -4.2110827e-17 0
-9.9999991 2.2444231e-15 0
-9.9999991 4.0882338e-16 0
-9.9999991 1.5889687e-16 0
-9.999999 7.9184162e-17 0
-9.999999 6.6448218e-15 0
-9.9999991 1.0167228e-12 0
-9.9999991 1.0109296e-12 0
-9.9999991 3.9459628e-13 0
-9.9999991 -2.1624211e-12 0
-9.9999991 -2.6395765e-12 0
-9.9999991 3.3955811e-11 0
-9.9999991 1.5448554e-08 0
-9.9999991 -1.497788e-05 0
-9.9999991 -0.0023836589 0
-9.9999991 0.0023836589 0
-9.9999991 1.4977881e-05 0
-9.9999991 -1.5445949e-08 0
-9.9999991 -3.3624769e-11 0
-9.9999991 4.0842051e-13 0
-9.9999991 -5.7448264e-15 0
-9.9999991 4.0983738e-17 0
-9.9999991 -7.0227055e-16 0
-9.9999991 1.82343e-15 0
-9.9999991 -1.1896163e-15 0
-9.9999991 4.7978736e-18 0
-9.9999991 6.4285433e-15 0
-9.9999991 -3.1195556e-12 0
-9.9999991 2.0945724e-12 0
-9.9999991 8.1885253e-12 0
-9.9999991 -4.7037879e-11 0
-9.9999991 5.1101607e-11 0
-9.9999991 6.3237391e-11 0
-9.9999991 6.3240339e-11 0
-9.9999991 6.3241648e-11 0
-9.999999 6.3173957e-11 0
-9.999999 9.7211338e-11 0
-9.999999 1.5509579e-08 0
-9.9999991 -1.497782e-05 0
-9.9999991 -0.0023836588 0
-9.999999 0.0023836589 0
-9.999999 1.4978343e-05 0
-9.999999 -1.5383191e-08 0
-9.999999 2.920767e-11 0
-9.999999 1.0022278e-10 0
-9.999999 3.2144329e-14 0
-9.999999 9.2761724e-13 0
-9.999999 3.4946905e-13 0
-9.999999 3.5176466e-13 0
-9.999999 3.9270759e-13 0
-9.999999 3.5577964e-12 0
-9.999999 -4.3704082e-11 0
-9.999999 5.4537554e-11 0
-9.9999989 6.3927432e-11 0
-9.999999 6.1392199e-11 0
-9.999999 -6.4633539e-10 0
-9.9999984 4.8769554e-07 0
-9.9999984 4.8699458e-07 0
-9.9999984 4.8699201e-07 0
-9.9999984 4.8699457e-07 0
-9.9999984 4.8699501e-07 0
-9.9999984 4.8702612e-07 0
-9.9999984 5.0243615e-07 0
-9.9999984 -1.4490893e-05 0
-9.9999984 -0.0023831719 0
-9.999991 0.0023836582 0
-9.9999984 1.5465984e-05 0
-9.9999984 4.7154834e-07 0
-9.9999984 4.8696073e-07 0
-9.9999984 4.8769912e-07 0
-9.9999985 -6.4408189e-10 0
-9.9999985 6.0263291e-11 0
-9.9999985 6.4134414e-11 0
-9.9999984 6.4135334e-11 0
-9.9999984 6.413377e-11 0
-9.9999984 6.1567672e-11 0
-9.9999985 -7.4189533e-10 0
-9.9999979 4.877917e-07 0
-9.9999979 4.8711263e-07 0
-9.9999979 4.8710653e-07 0
-9.9999979 4.8711908e-07 0
-9.9999978 4.8721978e-07 0
-9.9999977 4.8717251e-07 0
-9.9999977 4.8717254e-07 0
-9.9999977 4.8717144e-07 0
-9.9999977 4.8717145e-07 0
-9.9999977 4.8720758e-07 0
-9.9999976 5.026023e-07 0
-9.9999976 -1.4490687e-05 0
-9.9999976 -0.0023831716 0
-9.9999902 0.0023836581 0
-9.9999974 1.5466728e-05 0
-9.9999974 4.7175468e-07 0
-9.9999974 4.8716454e-07 0
-9.9999974 4.8719947e-07 0
-9.9999974 4.8709891e-07 0
-9.9999974 4.8713589e-07 0
-9.9999974 4.8713453e-07 0
-9.9999973 4.8713454e-07 0
-9.9999973 4.8713588e-07 0
-9.9999973 4.8712739e-07 0
-9.9999973 4.8582051e-07 0
-9.9999934 3.8977075e-06 0
-9.9999934 3.8963455e-06 0
-9.9999934 3.8963406e-06 0
-9.9999934 3.896343e-06 0
-9.9999934 3.8963434e-06 0
-9.9999934 3.8963412e-06 0
-9.9999934 3.8962233e-06 0
-9.9999934 3.8964754e-06 0
-9.9999933 3.8964952e-06 0
-9.9999933 3.8965285e-06 0
-9.9999932 3.9116637e-06 0
-9.9999927 -1.0594091e-05 0
-9.9999927 -0.002379274 0
-9.9999269 0.0023836563 0
-9.9999926 1.9366946e-05 0
-9.9999926 4.3680726e-06 0
-9.9999926 4.3834681e-06 0
-9.9999926 4.3834846e-06 0
-9.9999926 4.3835233e-06 0
-9.9999926 4.3835259e-06 0
-9.9999926 4.3835269e-06 0
-9.9999926 4.3835269e-06 0
-9.9999926 4.3835259e-06 0
-9.9999926 4.3835259e-06 0
-9.9999925 4.3835569e-06 0
-9.9999925 4.3837454e-06 0
-9.9999925 4.3836482e-06 0
-9.9999925 4.3836305e-06 0
-9.9999925 4.383669e-06 0
-9.9999925 4.3836722e-06 0
-9.9999925 4.3836657e-06 0
-9.9999925 4.3819025e-06 0
-9.9999903 6.3333384e-06 0
-9.9999903 6.3315748e-06 0
-9.9999903 6.3316021e-06 0
-9.9999903 6.3470169e-06 0
-9.9999903 -8.6462608e-06 0
-9.9999903 -0.0023773254 0
-9.9998953 0.0023836549 0
-9.9999902 2.1316813e-05 0
-9.9999902 6.3161959e-06 0
-9.9999902 6.3315957e-06 0
-9.9999902 6.3313474e-06 0
-9.9999898 6.8189072e-06 0
-9.9999897 6.8186401e-06 0
-9.9999897 6.8186477e-06 0
-9.9999896 6.8186042e-06 0
-9.9999896 6.8187073e-06 0
-9.9999896 6.8187164e-06 0
-9.9999896 6.8187164e-06 0
-9.9999896 6.8187141e-06 0
-9.9999896 6.8186747e-06 0
-9.9999896 6.8184869e-06 0
-9.9999891 7.3060416e-06 0
-9.9999891 7.305772e-06 0
-9.999989 7.30577e-06 0
-9.999989 7.3057931e-06 0
-9.999989 7.3060423e-06 0
-9.999989 7.3059219e-06 0
-9.999989 7.3059585e-06 0
-9.999989 7.3213798e-06 0
-9.999989 -7.6719355e-06 0
-9.999989 -0.0023763512 0
-9.9998945 0.0023836934 0
-10.000005 2.1321678e-05 0
-10.000005 6.8039268e-06 0
-10.000004 7.3059523e-06 0
-10.000004 7.3059433e-06 0
-10.000004 7.3058816e-06 0
-10.000003 8.2800926e-06 0
-10.000003 8.7672312e-06 0
-10.000002 8.7663488e-06 0
-10.000002 9.7417245e-06 0
-10.000002 9.7410209e-06 0
-10.000002 9.7410237e-06 0
-10.000002 9.7410169e-06 0
-10.000002 9.7404476e-06 0
-10.000001 1.0228553e-05 0
-10.000001 1.0228019e-05 0
-10.000001 1.0228001e-05 0
-10.000001 1.0228001e-05 0
-10.000001 1.0228e-05 0
-10.000001 1.0228002e-05 0
-10.000001 1.0228059e-05 0
-9.9999931 1.0227446e-05 0
-9.9999931 1.0242826e-05 0
-9.9999931 -4.7546625e-06 0
-9.9999932 -0.0023734666 0
-10.002084 0.0022515962 0
-10.002362 2.5331996e-05 0
-10.002362 1.0216398e-05 0
-10.002361 1.0719705e-05 0
-10.002361 1.0718982e-05 0
-10.002361 1.071898e-05 0
-10.002361 1.0718998e-05 0
-10.002362 1.023218e-05 0
-10.002368 1.1205917e-05 0
-10.002368 1.1206737e-05 0
-10.002368 1.1206643e-05 0
-10.002368 1.1694113e-05 0
-10.002368 1.1694062e-05 0
-10.002368 1.1694069e-05 0
-10.002368 1.1694151e-05 0
-10.002368 1.1694116e-05 0
-10.002368 1.1694116e-05 0
-10.002368 1.1694116e-05 0
-10.002368 1.1694116e-05 0
-10.002368 1.1694122e-05 0
-10.002367 1.169499e-05 0
-10.002368 1.1693921e-05 0
-10.002359 1.1708734e-05 0
-10.002359 -2.9101913e-06 0
-10.002228 -0.0022399094 0
10.005225 -0.021580039 0
10.008712 0.026770782 0
10.009508 0.0057269511 0
10.009524 0.0081027502 0
10.009524 0.0080742752 0
10.009524 0.0080923626 0
10.009524 0.008062821 0
10.009524 0.0080969894 0
10.009524 0.0080819761 0
10.009524 0.0080495546 0
10.009525 0.0080008123 0
10.009515 0.008377999 0
10.009515 0.0083409598 0
10.009515 0.0084772631 0
10.009515 0.0084702159 0
10.009457 0.0048447488 0
10.009457 0.0048708704 0
10.009457 0.0048126648 0
10.009457 0.0048039061 0
10.009456 0.0056245969 0
10.009457 0.0055934362 0
10.009447 0.0056245234 0
10.009438 0.0058124938 0
10.009438 0.0051216273 0
10.00937 -0.024304527 0
-8.5688224 0.022210126 0
-9.9995938 -0.024958151 0
-10.009961 -0.004756244 0
-10.009893 -0.0072701904 0
-10.009891 -0.0072440027 0
-10.009891 -0.0072570944 0
-10.009891 -0.0072259328 0
-10.009891 -0.0072617908 0
-10.009891 -0.0072458092 0
-10.009891 -0.0072060626 0
-10.009891 -0.0071559654 0
-10.009891 -0.0075482315 0
-10.00989 -0.0075093927 0
-10.009891 -0.0076476715 0
-10.009931 -0.0076408351 0
-10.009889 -0.00413835 0
-10.00989 -0.0041590875 0
-10.00989 -0.0040989604 0
-10.00989 -0.0040887456 0
-10.00989 -0.0048799631 0
-10.00989 -0.004841778 0
-10.00989 -0.0048798998 0
-10.00989 -0.0050751671 0
-10.009889 -0.0043817617 0
-10.009819 0.020689836 0
1.8371395 0.0037951473 0
9.7769547 0.0065210179 0
10.008646 0.00039259332 0
10.008635 0.0011897696 0
10.008635 0.0011718982 0
10.008635 0.0011679613 0
10.008635 0.0011523901 0
10.008635 0.0011699698 0
10.008634 0.0011610492 0