# vtk DataFile Version 4.0
hesp visualization file
ASCII
DATASET UNSTRUCTURED_GRID
POINTS 1250 double
27.722042 -1.8235282 4
28.765077 -1.0446604 4
31.507473 2.9004295 4
28.144766 7.9123385 4
29.957036 4.2324282 4
33.950203 6.6142483 4
34.25145 1.4835384 4
35.122928 10.924666 4
30.509843 9.6349771 4
27.979494 8.9371349 4
34.607725 11.038363 4
28.448166 12.152979 4
30.130966 13.488647 4
33.220839 13.201071 4
27.492053 18.577195 4
33.520821 15.664828 4
27.600239 23.000442 4
31.407002 22.525501 4
29.206776 21.132837 4
30.681942 25.852729 4
29.358019 23.433559 4
32.882751 25.222228 4
30.833861 23.342775 4
30.671528 35.17042 4
29.972893 32.800236 4
38.202862 -6.4952067 4
28.005144 1.6283577 4
27.898655 -3.3244186 4
28.876771 5.1952983 4
29.342142 4.8191129 4
29.573528 3.6995889 4
28.83019 1.8173377 4
26.559385 6.0004909 4
29.757388 7.1607356 4
26.698781 8.8952487 4
29.532212 10.843001 4
30.531291 10.452964 4
28.731714 16.476781 4
26.08719 13.699646 4
32.38983 13.633155 4
28.442161 22.772557 4
28.516801 15.667845 4
26.538018 19.92962 4
32.79877 18.526336 4
32.665497 21.194175 4
30.799165 28.411836 4
31.563694 21.331662 4
27.097577 29.713933 4
29.685749 35.009126 4
32.016259 30.14344 4
26.815061 -0.12651632 4
29.787591 -5.7144021 4
30.439411 1.1502821 4
32.671994 6.1591037 4
32.844922 -1.0334965 4
33.70309 3.2868811 4
30.321086 1.7268377 4
31.071151 9.2816747 4
31.52098 10.516113 4
34.191608 11.612741 4
31.258303 9.733171 4
30.055194 10.525497 4
31.974762 11.711557 4
33.040952 11.142277 4
32.201869 11.885375 4
31.826705 13.474261 4
29.277767 17.335322 4
33.94796 19.449866 4
31.192275 16.185798 4
28.660436 25.010585 4
27.704934 19.0503 4
33.68044 21.720586 4
29.8661 20.791564 4
33.149773 29.017417 4
31.25281 26.477645 4
36.174216 -10.351842 4
31.636322 -1.2480697 4
32.2216 5.4802977 4
32.615878 -0.71774894 4
27.283186 6.3834051 4
30.474508 9.3387579 4
28.12076 9.6827006 4
31.487879 11.872105 4
28.380489 11.1439 4
33.492145 11.814728 4
29.591671 15.192758 4
32.104148 9.7757273 4
29.985397 14.834971 4
31.064372 18.466136 4
31.759907 15.206203 4
32.324841 15.291898 4
29.07394 17.573018 4
33.485772 14.999127 4
30.682412 18.943625 4
31.452748 19.610264 4
34.330106 18.239099 4
31.283168 22.155747 4
29.478092 24.402059 4
28.997463 25.79153 4
32.387114 38.96988 4
33.953452 -5.7434238 4
30.035091 -4.9887758 4
36.128384 4.3288339 4
33.610166 7.4997534 4
27.766698 -0.42996056 4
32.082256 8.5299106 4
32.956792 5.7860787 4
30.942893 4.9133538 4
32.505134 6.6548855 4
32.446004 8.067115 4
33.750343 7.7931263 4
32.507154 9.3300269 4
34.680104 12.015019 4
34.153938 10.532954 4
33.37088 13.780631 4
35.130892 17.616201 4
33.185802 17.39401 4
31.2959 19.856115 4
30.348523 18.635875 4
36.038421 19.278123 4
33.958181 24.557825 4
32.382421 21.957325 4
36.4925 22.459048 4
33.378234 25.896943 4
31.48933 27.79541 4
29.243079 -5.0497406 4
27.344776 -0.39887195 4
34.661021 6.9244798 4
36.312478 6.5894697 4
34.002041 4.0562802 4
30.861978 10.135246 4
33.955136 9.7234586 4
35.56294 10.50644 4
34.9217 11.394081 4
34.184228 15.303509 4
34.766477 16.049203 4
36.450636 15.093632 4
32.851864 17.745101 4
37.012455 17.590728 4
30.841323 16.442078 4
32.720722 23.051394 4
33.767954 19.626125 4
33.642816 21.990129 4
34.242913 23.797123 4
34.359109 25.741678 4
31.814981 28.91002 4
32.037391 22.074561 4
32.106396 27.84135 4
34.715397 32.483792 4
26.222998 28.97897 4
32.225101 4.7705239 4
28.939358 -7.2560487 4
36.486845 5.444054 4
32.465168 1.490637 4
31.271236 3.157525 4
28.771539 5.7538833 4
31.94731 7.4645516 4
31.871023 10.100378 4
31.660417 12.279642 4
29.362554 9.953001 4
32.491261 13.122454 4
29.395155 13.262292 4
30.74916 13.516058 4
34.320327 16.20234 4
30.240437 14.446251 4
31.642526 17.12098 4
30.192689 16.975421 4
31.684674 20.449301 4
32.347697 24.425052 4
31.081667 21.562717 4
31.258326 24.060416 4
34.766726 24.819633 4
33.090237 26.983825 4
35.057956 23.92874 4
28.816504 31.436478 4
40.878533 -3.8093615 4
31.698086 2.2449661 4
32.599199 -0.00043757044 4
35.977444 4.674733 4
32.744948 10.644986 4
30.147059 0.58490687 4
32.487795 7.5539059 4
28.448232 8.3634311 4
36.064272 8.1908686 4
37.073761 9.2873395 4
32.849643 12.85228 4
32.063075 13.085904 4
32.805485 16.652842 4
33.003165 13.630555 4
37.051044 14.440297 4
33.362492 19.928955 4
35.822055 16.871722 4
32.029411 24.050629 4
33.405027 21.48951 4
30.064164 22.994316 4
31.689297 22.194666 4
29.395609 27.222386 4
35.580876 27.686046 4
31.235692 28.043208 4
39.496163 34.303942 4
33.425562 2.4864308 4
32.908038 2.1913556 4
34.015367 1.2861126 4
30.51229 -0.27892809 4
33.214353 4.153933 4
33.23366 2.8140912 4
34.083194 7.5037046 4
34.590614 10.788262 4
33.671733 12.257877 4
35.651563 12.187815 4
33.626904 16.671424 4
34.807779 15.594347 4
31.644951 15.441142 4
32.704958 14.275799 4
35.401178 18.105947 4
36.99286 18.471649 4
30.643226 15.24757 4
30.847609 15.116348 4
31.65823 15.969344 4
35.086654 19.7058 4
34.498898 24.566368 4
35.131528 26.832523 4
35.410116 23.856698 4
35.477602 28.347367 4
33.079222 27.277318 4
32.220916 -0.84184798 4
28.713873 2.173759 4
34.463317 1.7374002 4
34.577037 8.6138343 4
32.5184 6.3654819 4
34.809667 7.6309585 4
35.891501 6.3522534 4
35.07913 9.3980154 4
35.053184 11.598136 4
36.773938 13.378375 4
34.878366 12.234833 4
33.213335 14.925624 4
34.486973 16.507268 4
35.085379 15.438623 4
33.251626 17.976951 4
37.254254 20.349535 4
36.805415 20.608856 4
35.941883 24.164013 4
35.225348 21.045506 4
37.728727 24.234944 4
33.115982 25.471424 4
35.049592 26.320405 4
33.845306 27.629698 4
32.658264 29.025062 4
29.437778 29.056938 4
30.732206 -2.4881917 4
32.682622 1.8927339 4
32.704949 2.7311855 4
34.548543 1.3342208 4
38.132732 4.8406708 4
34.551918 3.9769267 4
37.020725 6.7242225 4
35.032073 6.7660803 4
34.300054 9.9695071 4
35.582243 9.4384822 4
35.323272 13.041732 4
36.190701 14.074706 4
37.958877 11.885452 4
37.916254 12.786456 4
33.885619 16.412626 4
33.002428 17.150306 4
35.309647 15.917733 4
34.639866 19.998025 4
34.023389 19.941629 4
35.190185 20.47184 4
37.915793 26.723403 4
33.718774 22.911421 4
33.389131 23.989561 4
34.016059 28.20054 4
30.740733 31.766146 4
37.720466 -5.7728679 4
31.929693 1.0112318 4
32.975157 3.3059451 4
37.597652 5.9055748 4
32.876468 6.3793877 4
38.228741 5.9620745 4
34.032484 7.9047044 4
31.949908 9.5361504 4
34.840698 9.9157072 4
32.6306 9.5785165 4
33.921998 14.807251 4
34.735811 13.43899 4
34.802317 16.327335 4
35.491867 13.967366 4
36.380813 18.160997 4
36.514971 21.216475 4
35.310921 20.196166 4
36.819618 21.47399 4
36.048819 22.338193 4
32.762424 20.342558 4
33.668501 23.517587 4
35.138897 24.456963 4
31.005555 27.681483 4
34.428242 30.013635 4
38.658055 33.077096 4
34.081667 0.22455109 4
35.521385 2.6975989 4
35.00881 2.0765695 4
32.973466 4.6197365 4
37.339276 4.7838533 4
36.598921 6.9290866 4
36.722115 8.3842733 4
40.241902 10.062353 4
37.139431 10.608214 4
36.600096 11.460273 4
36.600212 12.589734 4
36.599736 13.699623 4
36.602794 14.856926 4
36.605817 15.940934 4
36.691701 16.885602 4
43.164005 18.681061 4
37.232716 21.366567 4
36.693662 22.135771 4
34.598063 23.311141 4
37.019403 24.902264 4
36.124558 27.55371 4
35.930954 27.083914 4
38.673941 26.167661 4
36.167098 30.932946 4
33.01323 29.552351 4
34.541266 0.53001864 4
34.04487 2.3086798 4
37.240224 4.2485601 4
36.206971 2.4107481 4
34.164252 5.5985358 4
38.664184 7.2470195 4
34.969842 7.9700233 4
37.59146 9.5981618 4
37.167583 8.6377425 4
36.950022 9.592099 4
36.220117 10.742995 4
34.8322 13.162711 4
35.197761 14.714187 4
37.10828 14.091171 4
36.697966 18.017204 4
37.152609 16.641018 4
37.344549 18.244023 4
37.924547 16.595864 4
37.1668 19.527707 4
37.14042 20.601176 4
37.338655 21.932908 4
36.946301 23.220628 4
37.181209 24.003813 4
38.143569 28.172747 4
35.393247 29.032174 4
35.236945 1.1287026 4
35.831607 1.5157511 4
36.815111 3.8040426 4
37.270581 2.3088706 4
35.265101 5.6556649 4
37.453078 7.4182243 4
36.759821 7.1510958 4
35.772216 8.9126853 4
35.34029 10.796959 4
37.020737 11.012471 4
35.162254 11.947104 4
35.6548 12.58649 4
36.190989 14.36312 4
35.65669 15.585696 4
35.340307 16.837872 4
35.471881 18.544092 4
35.984547 20.132063 4
35.451405 20.891763 4
36.165146 21.653239 4
36.704621 24.676272 4
37.398962 23.800413 4
36.143633 25.30827 4
35.299231 23.339392 4
36.420804 28.822583 4
37.567131 28.763418 4
36.359355 1.1284723 4
36.441863 2.1995831 4
37.897439 2.7367637 4
36.371754 4.2193997 4
37.266551 5.2950085 4
38.031755 7.8047312 4
38.261753 9.8334388 4
38.256946 10.972558 4
38.256592 12.09573 4
38.256964 13.218333 4
38.257104 14.340814 4
38.257116 15.463331 4
38.259582 16.591941 4
38.487572 17.622816 4
38.59147 18.619659 4
38.840435 18.501409 4
37.983882 17.551058 4
38.041095 18.950443 4
38.353222 19.787916 4
38.346736 20.911599 4
38.346823 22.034821 4
38.392246 26.393361 4
38.745115 27.204596 4
36.355276 26.938592 4
36.343109 28.037292 4
37.481855 1.1284361 4
37.544357 2.2215856 4
37.678333 3.6307955 4
37.478459 4.4875996 4
38.073699 5.6986675 4
37.957341 7.0329467 4
39.75016 9.9795717 4
37.484298 8.9730605 4
37.482221 10.113725 4
37.485073 11.217428 4
37.48344 12.342471 4
37.483818 13.459725 4
37.485083 14.584759 4
37.485282 15.707365 4
40.01654 16.040403 4
37.528598 17.297324 4
37.485934 19.080953 4
37.724325 20.195617 4
37.559803 21.315429 4
37.46448 22.437367 4
37.558168 23.460478 4
38.394047 24.955535 4
38.120257 24.399273 4
37.748812 28.013084 4
37.430891 28.10157 4
38.604319 1.1284327 4
38.604309 2.2449375 4
38.604286 3.3673821 4
38.604267 4.4898732 4
38.603842 5.6123756 4
38.603757 6.7355103 4
38.603719 7.8576764 4
39.969827 9.6762279 4
39.967026 10.8376 4
39.967292 11.960088 4
39.967159 13.083031 4
39.967281 14.205523 4
39.968425 15.332456 4
39.955104 16.389934 4
39.988458 17.449578 4
40.339243 19.026214 4
39.60428 20.021941 4
38.60325 20.203657 4
38.603187 21.326358 4
38.603196 22.448812 4
38.604377 23.571858 4
40.709377 23.235203 4
38.718925 25.656436 4
39.549123 26.710945 4
38.945193 28.410721 4
39.726794 1.1284325 4
39.726782 2.2449318 4
[...]
POINT_DATA 1250
SCALARS m double
LOOKUP_TABLE default
1
1
1
1
1
1
1
1
1
1
1
1
1
1
1
1
1
1
1
1
1
1
1
1
1
1
1
1
1
1
1
1
1
1
1
1
1
1
1
1
1
1
1
1
1
1
1
1
1
1
1
1
1
1
1
1
1
1
1
1
1
1
1
1
1
1
1
1
1
1
1
1
1
1
1
1
1
1
1
1
1
1
1
1
1
1
1
1
1
1
1
1
1
1
1
1
1
1
1
1
1
1
1
1
1
1
1
1
1
1
1
1
1
1
1
1
1
1
1
1
1
1
1
1
1
1
1
1
1
1
1
1
1
1
1
1
1
1
1
1
1
1
1
1
1
1
1
1
1
1
1
1
1
1
1
1
1
1
1
1
1
1
1
1
1
1
1
1
1
1
1
1
1
1
1
1
1
1
1
1
1
1
1
1
1
1
1
1
1
1
1
1
1
1
1
1
1
1
1
1
1
1
1
1
1
1
1
1
1
1
1
1
1
1
1
1
1
1
1
1
1
1
1
1
1
1
1
1
1
1
1
1
1
1
1
1
1
1
1
1
1
1
1
1
1
1
1
1
1
1
1
1
1
1
1
1
1
1
1
1
1
1
1
1
1
1
1
1
1
1
1
1
1
1
1
1
1
1
1
1
1
1
1
1
1
1
1
1
1
1
1
1
1
1
1
1
1
1
1
1
1
1
1
1
1
1
1
1
1
1
1
1
1
1
1
1
1
1
1
1
1
1
1
1
1
1
1
1
1
1
1
1
1
1
1
1
1
1
1
1
1
1
1
1
1
1
1
1
1
1
1
1
1
1
1
1
1
1
1
1
1
1
1
1
1
1
1
1
1
1
1
1
1
1
1
1
1
1
1
1
1
1
1
1
1
1
1
1
1
1
1
1
1
1
1
1
1
1
1
1
1
1
1
1
1
1
1
1
1
1
1
1
1
1
1
1
1
1
1
1
1
1
1
1
1
1
1
1
1
1
1
1
1
1
1
1
1
1
1
1
1
1
1
1
1
1
1
1
1
1
1
1
1
1
1
1
1
1
1
1
1
1
1
1
1
1
1
1
1
1
1
1
1
1
1
1
1
1
1
1
1
1
1
1
1
1
1
1
1
1
1
1
1
1
1
1
1
1
1
1
1
1
1
1
1
1
1
1
1
1
1
1
1
1
1
1
1
1
1
1
1
1
1
1
1
1
1
1
1
1
1
1
1
1
1
1
1
1
1
1
1
1
1
1
1
1
1
1
1
1
1
1
1
1
1
1
1
1
1
1
1
1
1
1
1
1
1
1
1
1
1
1
1
1
1
1
1
1
1
1
1
1
1
1
1
1
1
1
1
1
1
1
1
1
1
1
1
1
1
1
1
1
1
1
1
1
1
1
1
1
1
1
1
1
1
1
1
1
1
1
1
1
1
1
1
1
1
1
1
1
1
1
1
1
1
1
1
1
1
1
1
1
1
1
1
1
1
1
1
1
1
1
1
1
1
1
1
1
1
1
1
1
1
1
1
1
1
1
1
1
1
1
1
1
1
1
1
1
1
1
1
1
1
1
1
1
1
1
1
1
1
1
1
1
1
1
1
1
1
1
1
1
1
1
1
1
1
1
1
1
1
1
1
1
1
1
1
1
1
1
1
1
1
1
1
1
1
1
1
1
1
1
1
1
1
1
1
1
1
1
1
1
1
1
1
1
1
1
1
1
1
1
1
1
1
1
1
1
1
1
1
1
1
1
1
1
1
1
1
1
1
1
1
1
1
1
1
1
1
1
1
1
1
1
1
1
1
1
1
1
1
1
1
1
1
1
1
1
1
1
1
1
1
1
1
1
1
1
1
1
1
1
1
1
1
1
1
1
1
1
1
1
1
1
1
1
1
1
1
1
1
1
1
1
1
1
1
1
1
1
1
1
1
1
1
1
1
1
1
1
1
1
1
1
1
1
1
1
1
1
1
1
1
1
1
1
1
1
1
1
1
1
1
1
1
1
1
1
1
1
1
1
1
1
1
1
1
1
1
1
1
1
1
1
1
1
1
1
1
1
1
1
1
1
1
1
1
1
1
1
1
1
1
1
1
1
1
1
1
1
1
1
1
1
1
1
1
1
1
1
1
1
1
1
1
1
1
1
1
1
1
1
1
1
1
1
1
1
1
1
1
1
1
1
1
1
1
1
1
1
1
1
1
1
1
1
1
1
1
1
1
1
1
1
1
1
1
1
1
1
1
1
1
1
1
1
1
1
1
1
1
1
1
1
1
1
1
1
1
1
1
1
1
1
1
1
1
1
1
1
1
1
1
1
1
1
1
1
1
1
1
1
1
1
1
1
1
1
1
1
1
1
1
1
1
1
1
1
1
1
1
1
1
1
1
1
1
1
1
1
1
1
1
1
1
1
1
1
1
1
1
1
1
1
1
1
1
1
1
1
1
1
1
1
1
1
1
1
1
1
1
1
1
1
1
1
1
1
1
1
1
1
1
1
1
1
1
1
1
1
1
1
1
1
1
1
1
1
1
1
1
1
1
1
1
1
1
1
1
1
1
1
1
1
1
1
1
1
1
1
1
1
1
1
1
1
1
1
1
1
1
1
1
1
1
1
1
1
1
1
1
1
1
1
1
1
1
1
1
1
1
1
1
1
1
1
1
1
1
1
1
1
1
1
1
1
1
1
1
1
1
1
1
1
1
1
1
1
1
1
1
1
1
1
1
1
1
1
1
1
1
1
1
1
1
1
1
1
1
1
1
1
1
1
1
1
1
1
1
1
1
1
1
1
1
1
1
1
1
1
1
1
1
1
1
1
1
1
1
1
1
1
1
1
1
1
1
1
1
1
VECTORS v double
-1.8441275 -6.9803766 0
-4.5088404 -4.994211 0
-3.9044879 -10.179136 0
-0.95318529 -13.758768 0
-7.3422421 5.2328506 0
9.765294 -1.8346856 0
-3.0159065 4.9770695 0
14.322018 4.2411166 0
-12.58803 1.7080591 0
7.7993124 3.0741539 0
-0.031307814 -6.1976291 0
3.4919218 -8.339572 0
-5.2948534 -2.3284269 0
7.1676801 -13.699583 0
-6.3374665 8.4088435 0
-2.2406298 4.7839235 0
6.0840734 -4.4383532 0
18.181525 -9.6004103 0
-2.4185647 -4.9932487 0
0.14112565 12.390857 0
-1.316057 6.9757583 0
0.60723659 9.5963616 0
4.8196391 -3.9438214 0
0.20929784 22.962542 0
1.668041 10.731639 0
8.8413672 -9.0838411 0
-12.126409 -4.062564 0
-4.8731411 -9.0168133 0
7.6553764 1.896849 0
-2.8663544 3.8506739 0
-3.3195892 -1.8460652 0
6.9712442 -2.6909318 0
-4.8037284 -8.3351694 0
-15.04547 -2.7890402 0
12.177363 -3.1081578 0
-9.1770134 -5.885133 0
10.607306 6.0404477 0
-5.9537021 6.3791867 0
-14.05273 24.876371 0
-6.0027681 -0.93686014 0
-3.9624444 5.3889298 0
9.9706733 -4.6761994 0
-8.158207 -1.9536626 0
19.03132 -11.975114 0
-0.3756429 3.2233198 0
-8.5075818 4.3961699 0
-5.0586158 -1.3619216 0
-2.3371618 2.5195925 0
1.4691615 13.663588 0
-7.0641933 8.500633 0
5.4663249 -11.143754 0
3.1098433 -15.909249 0
-5.7190795 -7.852183 0
-7.3161123 -10.330308 0
10.841599 -12.638034 0
-7.5743014 1.0666973 0
-11.218227 -4.6951347 0
2.6836278 4.1967984 0
6.7980579 6.4309494 0
0.51707408 3.2659495 0
-10.930081 -11.449977 0
8.5462552 -13.340999 0
-0.38492286 0.040256565 0
-0.73177738 0.69100425 0
3.3872674 6.5784052 0
2.2629522 -6.0470244 0
8.9346077 -12.906839 0
10.402904 1.3651894 0
-8.3283106 7.2729213 0
4.6402264 -6.5536976 0
2.2609605 3.1885278 0
6.2769486 -5.1846695 0
2.4271696 -9.7513037 0
6.376761 6.0444827 0
-2.15099 -0.88993636 0
3.9466542 -13.879275 0
-3.7445094 -5.2943668 0
-0.92650518 -0.81801066 0
3.3852037 -11.939374 0
1.0756427 -11.513974 0
-4.4098559 6.9935414 0
-8.4680815 -1.7264417 0
5.6711876 2.5827452 0
3.4771786 1.1154707 0
-2.4873334 -4.5131766 0
-0.53622745 -1.1662472 0
-10.30696 -9.1838142 0
-3.216433 -4.9451033 0
8.8270057 -7.8068338 0
6.5002878 -10.815389 0
5.3080427 -2.8726612 0
1.1128341 1.6799317 0
-2.2914503 -3.1659906 0
3.3432083 -1.7150712 0
-9.9396885 -1.5060449 0
3.0797736 -8.2245797 0
-6.2391398 2.1234569 0
6.37667 9.105948 0
3.7612218 -3.9452849 0
0.47115582 14.494986 0
3.3724388 -12.746343 0
-5.5347709 -14.763237 0
0.59170841 5.4387527 0
-2.509397 6.9776027 0
-7.3388402 -11.757289 0
-13.927229 -1.0167985 0
5.9037381 2.9984972 0
-7.2480136 -7.954303 0
15.346982 -8.4805853 0
5.9039101 -7.8753589 0
0.17067882 0.064372359 0
-10.913994 5.7152669 0
-3.8331183 6.6554243 0
-3.736137 -19.049277 0
-1.3990526 -2.0439908 0
17.878081 1.6259888 0
2.7828994 -1.8740174 0
-11.693677 -0.47604175 0
4.0994985 0.50910243 0
4.701795 -4.7522315 0
1.3947434 12.20311 0
2.9914883 15.321833 0
8.5539767 1.6837833 0
-5.7638401 0.92402389 0
-7.9248526 0.44841335 0
-2.386004 -8.9893869 0
-10.841539 -9.9966046 0
3.1537552 2.4740986 0
3.3043371 -7.4963832 0
1.124502 -7.5693901 0
-8.7968805 9.9905352 0
-7.4662552 -0.65290487 0
-3.3130491 5.4981405 0
2.2888538 -1.412926 0
10.852107 8.2927158 0
2.7880647 13.624644 0
10.564317 5.6786472 0
-6.0503436 9.8498796 0
6.7523224 6.9487337 0
-5.0262336 -15.47612 0
-8.1505528 5.0912834 0
-7.1034218 1.3984501 0
-2.9086423 -0.64063221 0
2.1148783 8.553058 0
-5.9217553 6.6070685 0
4.8400398 11.8326 0
1.1458349 -0.32129055 0
4.4759639 1.1713968 0
2.7835587 9.3004568 0
-9.182051 1.0955348 0
-0.34316777 12.907365 0
-7.1221671 -15.017634 0
3.0953308 -15.551334 0
-0.30355062 -3.8337332 0
3.2052497 -13.884355 0
2.4056371 1.6938696 0
6.857658 -4.343138 0
-4.8039021 6.3617975 0
10.030869 9.9565755 0
0.40589968 -4.9258864 0
-1.3664277 2.5330373 0
-5.3296711 3.377503 0
0.20739685 -6.472521 0
7.0558345 7.2714784 0
-1.7394221 -1.8334715 0
13.723152 -6.3102747 0
-0.48858251 8.9322305 0
0.59271811 5.6369214 0
3.0184732 3.8643049 0
4.2301197 -0.92195746 0
7.4092287 -1.850975 0
-4.3111663 7.2732445 0
0.15563805 10.60916 0
2.8480887 -0.29968275 0
-9.1890688 7.1197892 0
7.9152496 -6.5258364 0
-12.402174 -5.1477084 0
2.1221292 -16.803594 0
-0.40561584 -7.2566988 0
-11.766913 8.9554758 0
-4.8689431 -16.337327 0
-4.4857779 -3.8903261 0
-9.9317653 -12.538677 0
11.69079 -6.1007344 0
0.92797997 -2.0233758 0
-4.8419823 -2.3837441 0
-8.9594133 -1.7812238 0
-12.066538 5.4583723 0
3.0202836 1.0126776 0
6.8091288 -5.752319 0
2.1325477 7.2928322 0
9.5252641 -14.640524 0
-11.898759 -4.0398423 0
11.023588 -0.85159441 0
-8.3752773 -0.99254326 0
5.8980776 -6.2559025 0
-9.0664652 3.1844502 0
3.4967709 5.3578508 0
5.5230134 9.4237359 0
6.27467 8.8215757 0
3.1487023 -0.74216196 0
1.6482186 4.2850106 0
-0.54025202 0.46175474 0
6.3383301 -18.451826 0
-11.670155 -2.7145432 0
-2.9163121 11.157003 0
8.9873749 -12.500874 0
12.7087 5.1544403 0
10.78491 -10.85569 0
3.9785296 -1.9911533 0
7.9648129 8.6198404 0
-6.9718304 7.296595 0
-5.4578726 -4.7640023 0
-5.5505449 -18.856741 0
-5.9281663 1.0612503 0
14.464823 -6.7582904 0
-4.1780887 -7.7942875 0
1.6613324 -14.083158 0
14.207884 -4.8628804 0
7.0826476 8.0734253 0
-13.270497 9.1652459 0
3.3932849 4.3894723 0
-2.8105326 -3.288754 0
-0.19420839 6.1257853 0
-8.2785473 0.36068641 0
2.3950522 -1.0287313 0
-9.6410566 2.5124566 0
2.562476 -6.4448016 0
-6.40358 8.3861512 0
-0.255398 -2.1351722 0
-1.8175833 1.863609 0
-10.617545 5.7416476 0
9.3972726 6.5164373 0
-8.9846916 0.75852368 0
3.2660324 5.0613033 0
2.6008614 -1.2140781 0
-5.599774 19.147354 0
-8.1311636 1.7000504 0
8.0021135 -10.297672 0
-5.9785034 -4.3868375 0
-9.6600119 5.710284 0
-6.2936256 -3.0486936 0
-5.7053819 12.886943 0
-2.4366182 -7.1978829 0
0.71717586 -0.14153078 0
-10.318022 -3.4835707 0
-8.2475527 -4.1994421 0
-8.216815 -2.0376723 0
-1.5249013 -2.5143827 0
-10.633729 6.0419396 0
-9.3669518 -11.171049 0
-2.9833558 -10.253247 0
-1.4147784 -5.2684129 0
-13.526603 -12.708428 0
4.9672637 0.79007063 0
-7.7941327 -3.8171493 0
1.7035508 0.39598198 0
-5.1591866 -10.36271 0
-1.8976555 6.1861124 0
2.1012207 -10.932177 0
10.664904 8.8937018 0
1.5308953 5.0999402 0
5.0211351 -3.9523859 0
4.741787 -5.3139482 0
-11.902842 5.2868156 0
-9.7779195 9.0749844 0
-3.8917103 -14.840921 0
5.0877057 13.785571 0
2.172479 4.384055 0
-4.6502848 -5.0726095 0
0.75528676 -2.2472624 0
5.9285623 -6.5701332 0
8.0637764 -12.271108 0
-8.7701733 3.1627532 0
-10.02646 9.1836965 0
0.82996056 -12.770844 0
-7.7061307 -5.6465179 0
-0.89819782 0.001682028 0
-5.8759764 -3.7570274 0
1.6086152 0.29968275 0
8.192343 -6.0718153 0
5.9032758 -3.2425609 0
-5.1985638 -7.3007568 0
0.21417883 -4.1041461 0
-2.5828522 -14.263477 0
-9.9880562 1.1311201 0
-1.6703845 -2.1639113 0
6.7965325 5.8652857 0
-7.9389842 -3.181694 0
10.525929 4.122184 0
3.9461831 12.162548 0
-9.1343258 3.3935101 0
3.5266134 6.034715 0
7.8650804 -2.5298641 0
-0.2182487 -9.5415144 0
1.4498186 -3.091179 0
6.5019881 -7.2587642 0
-13.517001 7.9573247 0
-12.560732 8.767175 0
3.3785875 9.8879177 0
-0.93556401 -7.6888301 0
-12.803975 -2.9912101 0
10.283939 -16.165346 0
-10.131503 1.226479 0
-8.9741368 -7.0803629 0
-8.7582911 -3.737086 0
-7.1497457 2.240391 0
14.144201 2.1085001 0
0.25897658 -4.7358756 0
-8.4769873 -2.8209361 0
-8.4795469 -2.7022568 0
-8.4717327 -2.9377376 0
-7.9851753 -2.2649832 0
-8.4614574 -2.8513256 0
-6.0548946 -6.7226954 0
13.999786 1.9494681 0
-10.236005 4.5796918 0
-8.1640979 1.4772005 0
-10.829538 -4.7508966 0
-4.8981001 6.5097295 0
-4.942185 9.4878517 0
0.87468089 4.6513619 0
-2.5287143 5.5910615 0
-4.5674824 9.5568615 0
-9.9259749 5.7948004 0
0.38911372 -14.625013 0
-10.365835 -0.18104243 0
4.5643719 4.6469548 0
-5.4374739 7.5421224 0
-9.7466775 0.081133064 0
5.6693652 2.9403742 0
-10.476037 0.84419437 0
6.8674586 8.1613996 0
-1.2530563 0.16857427 0
-2.6383592 -9.2811416 0
-2.3059827 -5.8515956 0
-9.885213 4.3567546 0
-5.8406904 -0.54747986 0
3.8916793 -8.0157928 0
4.8676798 3.6360467 0
-12.047388 -3.2357976 0
-2.7143065 -1.914679 0
-0.86836147 -8.0039971 0
-5.2263641 -3.0961459 0
2.1249013 -2.8430933 0
-0.59269327 -0.6398142 0
-7.761939 2.2132519 0
-11.193717 -2.0104662 0
-15.285032 5.041226 0
-1.5046924 6.9881329 0
-10.000567 0.019415401 0
-3.6877335 -7.7025272 0
-1.15547 3.3744562 0
-10.773695 -2.4635882 0
-9.67589 0.4094362 0
1.1438484 -6.876413 0
-10.760062 -13.670475 0
-9.5662317 0.36332811 0
-11.519372 9.888662 0
0.35447351 4.0699586 0
-8.8877114 3.8955382 0
-5.5205888 -7.6061785 0
5.1943538 2.3704521 0
-1.7553781 -1.4207873 0
-8.1649626 0.84110038 0
-6.853577 8.7818108 0
-1.2149954 2.8456796 0
-1.0783995 7.9186943 0
-4.7498148 -0.61921859 0
5.1296053 8.3408797 0
-4.8231256 2.9796549 0
-10.241175 -1.2796959 0
-9.1742427 -9.0579658 0
-3.911761 9.2322293 0
0.087398653 3.1237495 0
-10.002968 0.012892113 0
2.1025897 -7.3759379 0
-1.7086548 -6.211688 0
-8.6759562 -2.8649725 0
-2.5703895 -3.4070481 0
3.682982 0.17803412 0
-10.86971 5.8283336 0
-10.928572 5.951809 0
-10.99796 5.9357159 0
-10.939626 5.9543469 0
-10.927153 5.9625322 0
-10.926926 5.9629981 0
-10.957935 6.0506259 0
2.5024219 1.8320131 0
2.6253369 -5.5594553 0
-6.4803186 -3.7911739 0
-14.523447 -5.9439263 0
-14.097786 2.5574559 0
-0.34576296 -9.6072693 0
-0.2754319 -9.5004759 0
-0.26762214 -9.4902375 0
1.6651681 10.001215 0
6.2390215 6.9372256 0
-10.114749 0.039786232 0
-10.234542 -0.035342271 0
-10.000046 0.010504199 0
1.6083628 -4.2990244 0
-7.1351646 3.8434641 0
-10.100978 -0.006081796 0
-4.9691947 0.53535485 0
-2.6213162 5.105545 0
1.9904851 11.177345 0
-10.038962 -0.018674862 0
-10.001313 0.11551617 0
-9.9909236 -0.045973819 0
-9.9599575 0.025932102 0
-10.00185 -0.10799846 0
-9.9995724 -0.049490827 0
-9.9744827 -0.039443032 0
8.0043257 -6.7038146 0
-9.9347197 -2.9924396 0
-9.889504 0.068305176 0
0.91052669 -0.38686521 0
-0.9440795 -0.23758432 0
-10.172955 -0.18031339 0
-4.5658077 -6.8176739 0
0.25428751 2.8033368 0
-12.088165 -2.460736 0
1.7382203 13.90497 0
-16.887091 5.7485313 0
-10.000007 0.010367376 0
-10.000618 0.00035133324 0
-10.001247 -0.00021642221 0
-10.004946 0.0028917042 0
-10.029628 0.0079170808 0
-10.023404 0.051995097 0
-10.010582 -0.0058755809 0
-10.152439 1.7667297 0
-10.024685 2.4186503 0
-10.021616 2.4207897 0
-10.022219 2.431073 0
-10.020869 2.4315155 0
-10.00117 2.5250513 0
-9.8728583 2.0067163 0
-9.8101023 -0.21704403 0
-1.6941067 9.7740448 0
-9.0416235 -0.83590405 0
-10.061974 -0.044074577 0
-10.060272 -0.038343648 0
-10.059829 -0.039524316 0
-10.000079 0.001551326 0
-7.7937834 -9.2927917 0
-5.8988532 -5.7646096 0
-9.1303267 -3.2454708 0
-3.967725 6.2546924 0
-9.9999641 0.010354022 0
-9.9999994 -4.352315e-05 0
-10.000002 8.8044711e-07 0
-10.000013 6.5740594e-06 0
-10.000036 8.305637e-06 0
-10.00009 3.8953136e-05 0
-9.9981948 0.0021731488 0
-1.7665932 -7.1975794 0
7.0456898 0.53978671 0
6.8928322 0.28635637 0
6.8965157 0.28745799 0
6.8926036 0.27871059 0
6.8940804 0.27843243 0
6.8880316 0.19954157 0
6.6155289 -0.25498236 0
3.9807338 -5.106267 0
-9.94919 -0.054878051 0
-1.3406149 10.213796 0
-10.000034 -0.00024023335 0
-10.000535 0.0037695489 0
-11.827643 -5.3506063 0
-10.005045 -0.0080004873 0
-10.000557 0.0010898577 0
-0.54286188 2.5369748 0
-10.001026 -0.010429533 0
-9.9999312 0.010353791 0
-9.9999897 -4.3816764e-05 0
-9.9999898 3.0395298e-06 0
-9.9999898 3.8965201e-06 0
-9.9999899 3.9119143e-06 0
-9.9999956 2.0075795e-05 0
-10.005468 0.0067101781 0
-10.006215 -0.0019937756 0
-10.052598 0.50847003 0
-10.058931 -0.11049901 0
-10.058877 -0.11027374 0
-10.058816 -0.11210281 0
-10.058836 -0.11211538 0
-10.058109 -0.1266168 0
-9.8838017 1.8583469 0
-7.1232013 8.056434 0
-10.013806 -0.018781 0
-10.000236 -5.1772098e-05 0
-10.000007 -3.7513676e-06 0
-10.000217 0.0010263398 0
4.6970428 3.4834634 0
-10.000029 -0.0002334567 0
-10.000034 4.6715767e-05 0
-10.003961 0.00064536112 0
-10.000057 -0.010433673 0
-9.9998923 0.010353773 0
-9.9999851 -4.1276491e-05 0
-9.9999852 5.4874528e-06 0
-9.9999852 6.345018e-06 0
-9.9999852 6.3442972e-06 0
-9.9999872 6.5124334e-06 0
-10.000006 1.3607992e-05 0
-10.000043 2.3261713e-05 0
-10.000138 -6.8104612e-08 0
-10.000127 -3.1930814e-06 0
-10.000125 -2.275886e-06 0
-10.000125 -2.3412423e-06 0
-10.000114 6.0686619e-06 0
-10.00011 2.6688188e-06 0
-10.000111 2.3122156e-05 0
-10.001279 0.010250657 0
-9.9988392 -0.040017203 0
-9.9999778 -1.4387466e-05 0
-9.9999738 1.7169639e-05 0
-9.9999973 4.1524561e-05 0
-10.001824 0.00022378932 0
-10.000005 -2.5073956e-05 0
-9.9999749 1.6497758e-05 0
-9.9999785 6.4150601e-05 0
-9.9999744 -0.010338816 0
-9.9997074 0.010353628 0
-9.9999697 -2.9824658e-05 0
-9.9999694 1.66718e-05 0
-9.9999693 1.801789e-05 0
-9.9999682 1.9000023e-05 0
-9.9999682 1.8993523e-05 0
-9.9999682 1.8993627e-05 0
-9.9999692 1.8592523e-05 0
-9.9999694 1.9051648e-05 0
-9.9999688 1.9037702e-05 0
-9.9999688 1.9526861e-05 0
-9.9999687 1.9529116e-05 0
-9.9999688 1.9545197e-05 0
-9.9999683 1.9509295e-05 0
-9.9999723 2.7465693e-05 0
-10.000812 0.002544249 0
-10.013384 -0.049166978 0
-9.9999736 3.8845165e-07 0
-9.9999655 2.1362127e-05 0
-9.9999604 2.8090759e-05 0
-9.9999629 2.7358787e-05 0
-9.9999601 2.6711453e-05 0
-9.9999582 2.886127e-05 0
-9.9999582 7.5793554e-05 0
-9.9999573 -0.010325182 0
-9.9995293 0.010353517 0
-9.999956 -1.8723358e-05 0
-9.9999561 2.7619795e-05 0
-9.9999561 2.8977098e-05 0
-9.999955 2.992921e-05 0
-9.9999539 3.093234e-05 0
-9.9999538 3.0916048e-05 0
-9.9999537 3.091698e-05 0
-9.9999538 3.0918902e-05 0
-9.9999537 3.0922028e-05 0
-9.9999531 3.0916411e-05 0
-9.9999531 3.1416142e-05 0
-9.9999526 3.1407729e-05 0
-9.9999526 3.1887679e-05 0
-9.9999533 3.2914511e-05 0
-9.9999702 4.1289093e-05 0
-9.9999857 2.1356979e-05 0
-9.9999524 3.1026718e-05 0
-9.9999486 3.5305787e-05 0
-9.9999488 3.5309922e-05 0
-9.9999487 3.5305245e-05 0
-9.9999489 3.5303983e-05 0
-9.9999488 3.6167701e-05 0
-9.9999488 8.3110753e-05 0
-9.9999485 -0.010318324 0
-9.9993823 0.010356667 0
-9.9999015 -1.7894328e-05 0
-9.9999001 2.960736e-05 0
-9.9998995 3.0952069e-05 0
-9.9998991 3.0935353e-05 0
-9.9998975 3.1900629e-05 0
-9.9998969 3.3384643e-05 0
-9.9998879 3.3872463e-05 0
-9.999887 3.4333962e-05 0
-9.9998852 3.5817012e-05 0
-9.9998847 3.6778133e-05 0
-9.9998847 3.6773449e-05 0
-9.9998841 3.6769361e-05 0
-9.999884 3.7251293e-05 0
-9.9998835 3.7762275e-05 0
-9.9998913 3.75525e-05 0
-9.9998914 3.7456811e-05 0
-9.9998824 3.8725992e-05 0
-9.9998824 3.8722032e-05 0
-9.999874 3.8710016e-05 0
-9.9998733 3.9698532e-05 0
-9.9998647 4.0175277e-05 0
-9.9998644 4.1514256e-05 0
-9.9998647 8.8125377e-05 0
-9.9998734 -0.010316106 0
-10.009107 0.0097812445 0
-10.010267 3.008346e-06 0
-10.010265 4.0085757e-05 0
-10.010264 4.1441911e-05 0
-10.010263 4.242447e-05 0
-10.010263 4.2908027e-05 0
-10.010262 4.2921291e-05 0
-10.010263 4.2907386e-05 0
-10.010279 4.2426577e-05 0
-10.010279 4.2427896e-05 0
-10.010277 4.2414654e-05 0
-10.010269 4.3419701e-05 0
-10.010269 4.3890621e-05 0
-10.010268 4.4889897e-05 0
-10.010268 4.4879733e-05 0
-10.010268 4.5373912e-05 0
-10.010267 4.5859183e-05 0
-10.010267 4.6361641e-05 0
-10.010267 4.6358723e-05 0
-10.010267 4.6343599e-05 0
-10.010264 4.7854867e-05 0
-10.010265 4.7822847e-05 0
-10.010256 4.9154971e-05 0
-10.010259 8.7290379e-05 0
-10.009685 -0.0097345118 0
9.3664077 -3.840962 0
-1.1570185 -15.907824 0
-8.4480598 5.6280004 0
6.9878749 -11.31425 0
0.32130211 -3.1925245 0
1.2116144 -6.9487493 0
2.7791099 -3.1650641 0
-5.0263274 -1.7987056 0
-5.2286733 5.5418371 0
-3.061239 4.2266774 0
5.6314718 -17.001412 0
4.917134 -11.652116 0
-21.766713 -3.0479097 0
1.2855718 -3.6537224 0
1.2240342 -8.8719562 0
-0.90751741 -1.9220336 0
0.7769347 15.993632 0
26.563045 -23.645026 0
1.5599403 11.028035 0
-1.6861848 12.066687 0
-4.0385748 2.2950569 0
0.38324055 10.097297 0
8.213631 4.7086044 0
-2.6282284 22.954803 0
-9.4775314 5.5649989 0
7.3604768 -2.0850739 0
2.6156232 -4.4758692 0
5.2312148 0.069332704 0
2.7945993 7.8503921 0
-9.247605 -6.1541459 0
0.79378742 -7.7628004 0
5.0209619 2.6210543 0
2.2337194 10.398514 0
0.023125448 -2.3801606 0
7.4321102 10.260011 0
-12.736617 -3.3520792 0
-0.29425964 -8.6366763 0
6.6165515 -6.7258045 0
-8.8664472 4.9491485 0
0.47256833 6.7647377 0
-3.5962808 0.87067298 0
11.31477 4.77923 0
-4.252709 -5.5155056 0
-6.9361937 2.5654219 0
-6.7390314 0.91850474 0
-1.1524653 17.294715 0
-5.6736868 6.9241742 0
6.0847048 0.33392626 0
7.7401475 5.1950105 0
-0.12099478 9.3397365 0
8.235789 -6.0207265 0
0.56486553 -0.40254513 0
-5.4836865 -1.4472631 0
-6.8653559 -6.046747 0
10.292924 13.306865 0
7.4737112 -4.1602645 0
-2.23489 -12.985383 0
5.1931308 -10.420618 0
-7.6794841 7.3699975 0
2.4075371 -4.8952701 0
2.6004076 -2.3092858 0
-2.209272 -10.814306 0
-8.6104655 10.866235 0
5.0818527 1.5625924 0
-0.23933565 4.1744259 0
-6.971212 -2.0952929 0
4.8812388 0.75242843 0
0.90786915 -2.9349118 0
3.0195126 -4.6531852 0
7.2470441 1.5707247 0
5.0530363 5.5154258 0
-3.115585 3.2564375 0
6.2371236 7.1959936 0
9.7687737 0.221668 0
3.0566402 -9.2981411 0
-6.5485134 -6.7367901 0
-1.9776855 -10.564135 0
-11.247344 -3.8597608 0
-2.2096973 -0.8968779 0
-3.1375185 2.3988045 0
13.79911 -2.8136716 0
-2.7396893 3.218729 0
8.0926893 2.3912997 0
-2.1721799 5.4511091 0
-7.8097772 1.2949245 0
-2.7291523 1.5745881 0
0.69767213 0.38974212 0
9.2863974 5.672463 0
-4.1233604 2.5282804 0
-8.053602 12.852639 0
5.8358625 -7.4993941 0
-13.720504 -7.5552282 0
-7.2359111 -3.394258 0
-18.219497 -0.54408697 0
-6.5749087 -7.2884289 0
3.606075 -0.95935391 0
10.643943 1.2161851 0
-0.27573002 5.9822292 0
7.1223265 2.7531897 0
7.0375676 8.2929065 0
8.3178714 -8.7026202 0
3.7385303 -0.44082979 0
-1.5988202 -5.4378358 0