# vtk DataFile Version 4.0
hesp visualization file
ASCII
DATASET UNSTRUCTURED_GRID
POINTS 1250 double
28.037689 -0.6327765 4
29.524527 -0.23099402 4
32.146636 4.6633161 4
28.794162 7.7175918 4
31.320996 3.6852345 4
32.915292 6.3880903 4
33.491715 2.5618935 4
32.511033 10.291742 4
31.172974 9.3093381 4
28.01264 9.2765663 4
33.437305 11.567629 4
29.091068 13.93482 4
31.501865 13.824571 4
32.839867 13.906116 4
29.060677 17.827342 4
33.263829 15.534922 4
27.783346 21.595508 4
31.206181 22.532866 4
29.338752 21.906734 4
30.409553 24.511584 4
30.011979 23.072771 4
31.081666 25.51079 4
30.034686 24.226954 4
30.6358 31.266789 4
29.686921 30.97921 4
36.699719 -4.9505421 4
28.981573 2.4871912 4
28.734174 -1.7852668 4
28.508438 4.7758583 4
29.832616 4.1609621 4
30.172573 3.9918266 4
27.821764 3.6805307 4
27.853527 6.9403918 4
29.833956 7.7794364 4
28.761424 9.9528589 4
29.428636 13.529637 4
29.277053 10.692732 4
28.518235 14.733977 4
26.006004 13.997772 4
32.37626 14.273385 4
29.032815 21.877446 4
29.027254 17.160783 4
27.38347 19.700208 4
32.052081 21.259617 4
32.714395 21.343209 4
30.904649 27.154345 4
32.078138 22.05264 4
27.534705 29.036512 4
29.436061 32.686328 4
32.548757 29.314341 4
26.047609 1.3199036 4
29.841867 -3.6648809 4
31.286567 2.4511265 4
32.985364 5.4002839 4
31.428389 0.68877894 4
32.853436 4.5903586 4
31.558281 2.65023 4
31.142169 8.6412009 4
30.399885 9.3965846 4
33.117213 11.516617 4
32.30731 11.333944 4
30.296714 10.853938 4
31.078769 11.11849 4
33.149369 11.037339 4
32.595348 12.171778 4
31.446184 14.493116 4
30.001029 17.080243 4
33.707924 17.714278 4
30.296482 16.656996 4
29.877488 23.757743 4
28.894505 19.695394 4
32.579291 21.689377 4
29.771864 22.513345 4
32.032875 28.025275 4
31.599236 26.619298 4
35.503285 -7.9923656 4
31.631209 -0.75510872 4
31.671688 5.5125598 4
31.980065 1.4750975 4
27.773824 6.2948332 4
30.554876 7.9502356 4
29.143942 9.6791874 4
30.212522 10.274703 4
28.403808 11.11746 4
34.030054 11.378488 4
29.706545 15.398465 4
32.802646 11.536118 4
30.516842 15.709199 4
30.467097 19.730848 4
31.081614 15.361773 4
31.545008 15.257921 4
29.609886 18.114213 4
33.02996 14.891501 4
31.770328 19.140505 4
33.347233 19.520901 4
33.015548 19.293645 4
31.987966 21.515092 4
29.484722 23.25246 4
29.325101 26.328464 4
32.307017 36.505732 4
33.380136 -3.5765447 4
30.970223 -2.470276 4
35.833612 3.4898203 4
33.901492 6.3212408 4
29.403381 1.6367297 4
33.480681 7.9010862 4
32.5644 5.3969256 4
32.214361 6.2523369 4
32.268963 7.3629471 4
32.195139 9.0076992 4
32.929453 8.6808216 4
33.473859 9.7742696 4
34.808948 11.70232 4
33.186839 12.087102 4
33.095642 13.370208 4
33.7804 16.461292 4
33.192882 16.722365 4
33.257465 19.856573 4
30.335601 18.218998 4
35.230233 20.097702 4
33.410638 22.822195 4
31.966744 19.890197 4
34.912704 22.34817 4
34.542119 26.431021 4
31.098483 27.562105 4
29.066374 -2.8659756 4
28.798235 1.2386107 4
34.286804 6.5237352 4
35.69084 8.2616769 4
34.687697 5.877512 4
33.137793 8.9987219 4
34.388987 9.40697 4
35.730725 8.8961389 4
34.916189 11.329785 4
34.141792 13.889486 4
34.682331 15.081408 4
35.696945 15.061895 4
34.23534 17.212237 4
35.573803 16.955988 4
31.837661 18.646395 4
33.744405 22.011955 4
34.123193 20.45109 4
34.322667 22.304475 4
34.467136 22.895581 4
35.301944 24.604125 4
32.527959 27.325485 4
31.550947 22.793073 4
33.014124 27.809005 4
34.242193 30.902714 4
27.765178 28.823748 4
33.162688 3.5740877 4
30.150127 -4.7030339 4
37.385427 5.1505122 4
32.24724 2.7473928 4
30.739149 5.5029475 4
28.619168 6.3945506 4
31.90749 7.5328993 4
32.111445 10.292918 4
30.286498 11.72808 4
29.83274 10.544181 4
32.848143 12.844293 4
30.336938 13.196393 4
30.935641 14.307262 4
34.181152 14.919433 4
30.533611 14.753031 4
29.534536 17.482653 4
30.684038 17.196044 4
31.658933 20.084691 4
32.878072 23.533737 4
30.685841 21.747021 4
31.964571 23.136057 4
33.328861 24.924659 4
33.067438 25.165171 4
34.463081 23.578824 4
30.368161 30.230346 4
39.532941 -2.6999694 4
32.204421 3.0505652 4
32.141504 1.8818875 4
36.022642 5.8683836 4
33.897547 8.4632708 4
31.014979 3.3730341 4
31.743416 8.0207579 4
30.152973 9.2465083 4
34.069949 9.2227246 4
36.78698 9.7105146 4
32.33001 13.586354 4
32.743854 13.433192 4
32.429846 16.03835 4
32.081484 15.43914 4
35.82019 15.33797 4
33.155487 18.81793 4
34.140081 19.331746 4
33.016898 22.16652 4
32.150119 21.759715 4
30.835961 23.361578 4
31.034111 23.558818 4
30.944599 26.675702 4
34.992234 26.77596 4
31.713157 27.16268 4
38.429461 32.804258 4
33.38357 1.246063 4
34.208495 2.6258181 4
34.19119 1.2762295 4
31.705838 2.1406093 4
34.322566 3.9835912 4
33.612201 2.839732 4
34.116456 8.0252948 4
34.185695 9.9528781 4
33.516157 11.864815 4
35.021287 12.559196 4
34.104971 14.417745 4
33.07811 14.672527 4
33.312456 15.906867 4
33.682197 17.47599 4
34.546182 16.786997 4
34.555169 19.515048 4
31.102187 16.242128 4
32.219089 16.485118 4
31.687884 18.028254 4
34.948421 18.970319 4
35.401317 24.040168 4
34.597751 26.035748 4
36.557405 24.448558 4
35.503895 27.315411 4
34.48432 27.230768 4
32.470242 -0.19817157 4
30.549443 1.8908162 4
34.464194 2.8282599 4
35.655731 7.1688099 4
33.196385 6.9086528 4
35.164951 7.3435145 4
35.837473 7.6303763 4
34.751321 8.7359717 4
36.197334 11.103273 4
36.209874 12.541796 4
35.458823 13.243833 4
34.365315 14.248983 4
35.508619 16.664581 4
35.848519 16.412635 4
34.554857 17.978635 4
37.097424 19.960915 4
36.90424 20.812335 4
36.903674 21.979063 4
35.62075 22.162348 4
37.781799 24.732553 4
34.66059 25.384808 4
35.412938 26.6301 4
35.025419 27.797819 4
33.62171 28.80486 4
31.274216 28.175002 4
32.344617 -0.61025607 4
32.393312 2.2619132 4
32.766384 3.052352 4
34.822634 3.138223 4
37.267682 4.8531335 4
35.875459 4.6259612 4
36.718535 6.6898305 4
35.862534 8.4824702 4
35.686359 9.378515 4
35.741689 10.59135 4
35.743435 11.715736 4
36.077827 13.109558 4
37.111829 12.555037 4
37.109917 13.686051 4
35.700076 16.020686 4
34.577736 16.035775 4
35.445113 18.300283 4
33.867691 17.953558 4
34.657885 19.867127 4
34.763647 20.551586 4
36.920064 25.271904 4
33.822578 23.722096 4
33.489688 24.550012 4
35.517358 27.643498 4
32.445216 30.204914 4
37.579481 -3.6022285 4
33.573913 2.2453117 4
33.581935 3.4132906 4
37.717916 6.1315524 4
33.693338 7.5299302 4
37.205889 7.1167508 4
34.261733 8.5623881 4
34.178432 9.6559927 4
34.790114 10.597725 4
34.216397 10.99947 4
34.664838 14.021473 4
35.022116 13.817411 4
34.406144 15.321125 4
35.718783 13.798182 4
36.093439 17.830077 4
36.331844 19.250312 4
35.520653 19.636916 4
35.83133 20.785092 4
34.776428 22.750503 4
33.681408 21.165321 4
34.023433 24.077229 4
35.573414 24.824413 4
33.301797 26.392696 4
36.563578 28.522836 4
38.083704 31.396165 4
34.691157 1.126682 4
37.02793 3.0060078 4
35.386004 3.3219417 4
34.694848 4.5063666 4
38.582638 5.921557 4
38.04233 7.4488462 4
38.04249 8.5712525 4
38.042436 9.6937236 4
38.042493 10.81618 4
38.042493 11.938645 4
38.042493 13.061104 4
38.042515 14.183537 4
38.042125 15.30653 4
38.044575 16.425786 4
38.044484 17.541162 4
40.785812 18.363027 4
37.320784 21.105141 4
37.244413 22.207309 4
36.675825 23.445352 4
37.477164 24.030558 4
36.958086 25.926072 4
36.815126 26.742224 4
38.454711 26.048048 4
36.943547 29.308249 4
34.697744 28.561052 4
35.814458 1.1268083 4
35.794249 2.2967973 4
36.447403 3.4605812 4
36.699288 3.3181607 4
35.823944 5.5857248 4
37.643223 6.8906999 4
36.722002 7.8012388 4
37.083256 8.5812066 4
37.60423 9.6731384 4
37.013099 10.783556 4
36.579051 11.775819 4
35.791462 13.505366 4
35.809666 14.667612 4
36.481165 15.379343 4
36.228583 17.178112 4
38.406305 17.105993 4
37.803065 18.571503 4
38.311004 18.252013 4
38.27335 19.481206 4
38.268306 20.601679 4
38.269673 21.724742 4
38.270145 22.847662 4
38.270197 23.970151 4
39.733409 26.627612 4
35.861193 28.026451 4
36.936929 1.1268068 4
36.936637 2.2453555 4
37.005733 3.3558934 4
37.703221 3.5757535 4
36.936074 5.6144314 4
37.443051 7.8525709 4
37.078976 7.8518367 4
36.947778 8.9651095 4
36.963147 10.163515 4
36.941221 11.192143 4
36.940725 12.30109 4
36.942396 13.435271 4
36.944882 14.563509 4
36.944946 15.686119 4
36.945054 16.808929 4
36.996754 18.076019 4
37.077935 19.540299 4
36.947619 20.263126 4
36.981496 21.749523 4
37.011132 22.905977 4
37.359765 23.542717 4
37.742162 25.400225 4
36.947225 24.784985 4
37.115624 27.230476 4
37.546138 28.236398 4
38.059393 1.126804 4
38.059391 2.2449375 4
38.059204 3.36752 4
38.0593 4.489821 4
38.05971 5.6134184 4
39.013333 7.7282954 4
39.803117 8.7899525 4
39.802978 9.9126522 4
39.802981 11.03511 4
39.802978 12.157577 4
39.802979 13.280037 4
39.802977 14.402501 4
39.802957 15.524986 4
39.803333 16.647003 4
39.799492 17.775142 4
39.516046 18.639712 4
38.394056 19.172714 4
38.410595 20.301904 4
38.41023 21.423978 4
38.408301 22.545648 4
38.408252 23.668213 4
38.367992 24.897624 4
38.033681 25.667579 4
38.059286 26.938742 4
38.059269 28.057228 4
39.181856 1.1268039 4
39.181856 2.244936 4
39.181856 3.3673861 4
39.181855 4.4898488 4
39.181809 5.6123397 4
39.18166 6.7348989 4
39.446308 8.1039241 4
39.181252 8.9793937 4
39.181254 10.101854 4
39.181254 11.224316 4
39.181254 12.346778 4
39.181254 13.46924 4
39.181254 14.591702 4
39.181251 15.71417 4
39.181262 16.836622 4
39.198231 17.779947 4
39.181812 19.081142 4
39.181816 20.204318 4
39.181816 21.326782 4
39.181817 22.449244 4
39.181816 23.571706 4
39.181864 24.694229 4
40.004619 24.956254 4
39.181971 26.938757 4
39.181856 28.057209 4
40.304318 1.1268039 4
40.304318 2.2449359 4
40.304318 3.3673861 4
40.304318 4.4898483 4
40.304318 5.6123106 4
40.304317 6.7347731 4
40.304308 7.8572387 4
40.304275 8.9796849 4
40.304275 10.102147 4
40.304275 11.224609 4
40.304275 12.347071 4
40.304275 13.469533 4
40.304275 14.591995 4
40.304275 15.714457 4
40.304274 16.836921 4
40.303253 17.962905 4
40.304302 19.081789 4
40.304318 20.204317 4
40.304318 21.326779 4
40.304319 22.449241 4
40.304319 23.571704 4
40.304212 24.694264 4
40.304255 25.816601 4
40.304301 26.939066 4
40.304319 28.05721 4
41.426788 1.1268039 4
41.426781 2.2449364 4
[...]
POINT_DATA 1250
SCALARS m double
LOOKUP_TABLE default
1
1
1
1
1
1
1
1
1
1
1
1
1
1
1
1
1
1
1
1
1
1
1
1
1
1
1
1
1
1
1
1
1
1
1
1
1
1
1
1
1
1
1
1
1
1
1
1
1
1
1
1
1
1
1
1
1
1
1
1
1
1
1
1
1
1
1
1
1
1
1
1
1
1
1
1
1
1
1
1
1
1
1
1
1
1
1
1
1
1
1
1
1
1
1
1
1
1
1
1
1
1
1
1
1
1
1
1
1
1
1
1
1
1
1
1
1
1
1
1
1
1
1
1
1
1
1
1
1
1
1
1
1
1
1
1
1
1
1
1
1
1
1
1
1
1
1
1
1
1
1
1
1
1
1
1
1
1
1
1
1
1
1
1
1
1
1
1
1
1
1
1
1
1
1
1
1
1
1
1
1
1
1
1
1
1
1
1
1
1
1
1
1
1
1
1
1
1
1
1
1
1
1
1
1
1
1
1
1
1
1
1
1
1
1
1
1
1
1
1
1
1
1
1
1
1
1
1
1
1
1
1
1
1
1
1
1
1
1
1
1
1
1
1
1
1
1
1
1
1
1
1
1
1
1
1
1
1
1
1
1
1
1
1
1
1
1
1
1
1
1
1
1
1
1
1
1
1
1
1
1
1
1
1
1
1
1
1
1
1
1
1
1
1
1
1
1
1
1
1
1
1
1
1
1
1
1
1
1
1
1
1
1
1
1
1
1
1
1
1
1
1
1
1
1
1
1
1
1
1
1
1
1
1
1
1
1
1
1
1
1
1
1
1
1
1
1
1
1
1
1
1
1
1
1
1
1
1
1
1
1
1
1
1
1
1
1
1
1
1
1
1
1
1
1
1
1
1
1
1
1
1
1
1
1
1
1
1
1
1
1
1
1
1
1
1
1
1
1
1
1
1
1
1
1
1
1
1
1
1
1
1
1
1
1
1
1
1
1
1
1
1
1
1
1
1
1
1
1
1
1
1
1
1
1
1
1
1
1
1
1
1
1
1
1
1
1
1
1
1
1
1
1
1
1
1
1
1
1
1
1
1
1
1
1
1
1
1
1
1
1
1
1
1
1
1
1
1
1
1
1
1
1
1
1
1
1
1
1
1
1
1
1
1
1
1
1
1
1
1
1
1
1
1
1
1
1
1
1
1
1
1
1
1
1
1
1
1
1
1
1
1
1
1
1
1
1
1
1
1
1
1
1
1
1
1
1
1
1
1
1
1
1
1
1
1
1
1
1
1
1
1
1
1
1
1
1
1
1
1
1
1
1
1
1
1
1
1
1
1
1
1
1
1
1
1
1
1
1
1
1
1
1
1
1
1
1
1
1
1
1
1
1
1
1
1
1
1
1
1
1
1
1
1
1
1
1
1
1
1
1
1
1
1
1
1
1
1
1
1
1
1
1
1
1
1
1
1
1
1
1
1
1
1
1
1
1
1
1
1
1
1
1
1
1
1
1
1
1
1
1
1
1
1
1
1
1
1
1
1
1
1
1
1
1
1
1
1
1
1
1
1
1
1
1
1
1
1
1
1
1
1
1
1
1
1
1
1
1
1
1
1
1
1
1
1
1
1
1
1
1
1
1
1
1
1
1
1
1
1
1
1
1
1
1
1
1
1
1
1
1
1
1
1
1
1
1
1
1
1
1
1
1
1
1
1
1
1
1
1
1
1
1
1
1
1
1
1
1
1
1
1
1
1
1
1
1
1
1
1
1
1
1
1
1
1
1
1
1
1
1
1
1
1
1
1
1
1
1
1
1
1
1
1
1
1
1
1
1
1
1
1
1
1
1
1
1
1
1
1
1
1
1
1
1
1
1
1
1
1
1
1
1
1
1
1
1
1
1
1
1
1
1
1
1
1
1
1
1
1
1
1
1
1
1
1
1
1
1
1
1
1
1
1
1
1
1
1
1
1
1
1
1
1
1
1
1
1
1
1
1
1
1
1
1
1
1
1
1
1
1
1
1
1
1
1
1
1
1
1
1
1
1
1
1
1
1
1
1
1
1
1
1
1
1
1
1
1
1
1
1
1
1
1
1
1
1
1
1
1
1
1
1
1
1
1
1
1
1
1
1
1
1
1
1
1
1
1
1
1
1
1
1
1
1
1
1
1
1
1
1
1
1
1
1
1
1
1
1
1
1
1
1
1
1
1
1
1
1
1
1
1
1
1
1
1
1
1
1
1
1
1
1
1
1
1
1
1
1
1
1
1
1
1
1
1
1
1
1
1
1
1
1
1
1
1
1
1
1
1
1
1
1
1
1
1
1
1
1
1
1
1
1
1
1
1
1
1
1
1
1
1
1
1
1
1
1
1
1
1
1
1
1
1
1
1
1
1
1
1
1
1
1
1
1
1
1
1
1
1
1
1
1
1
1
1
1
1
1
1
1
1
1
1
1
1
1
1
1
1
1
1
1
1
1
1
1
1
1
1
1
1
1
1
1
1
1
1
1
1
1
1
1
1
1
1
1
1
1
1
1
1
1
1
1
1
1
1
1
1
1
1
1
1
1
1
1
1
1
1
1
1
1
1
1
1
1
1
1
1
1
1
1
1
1
1
1
1
1
1
1
1
1
1
1
1
1
1
1
1
1
1
1
1
1
1
1
1
1
1
1
1
1
1
1
1
1
1
1
1
1
1
1
1
1
1
1
1
1
1
1
1
1
1
1
1
1
1
1
1
1
1
1
1
1
1
1
1
1
1
1
1
1
1
1
1
1
1
1
1
1
1
1
1
1
1
1
1
1
1
1
1
1
1
1
1
1
1
1
1
1
1
1
1
1
1
1
1
1
1
1
1
1
1
1
1
1
1
1
1
VECTORS v double
-1.9889867 -7.3288549 0
-4.4411695 -4.7315393 0
-3.6677182 -10.551627 0
-5.1862383 8.0679973 0
-8.2806173 2.4037069 0
4.2409639 2.8939142 0
6.7206473 -10.929922 0
15.451103 3.7096155 0
5.0032691 -5.8321427 0
-11.581592 -4.4599786 0
7.4580801 0.51260934 0
17.640377 -14.640642 0
5.5268353 -3.4100802 0
1.3467911 -0.84712531 0
-4.358521 -7.0656523 0
-0.73607374 -6.3211592 0
-3.3455754 12.933521 0
6.5114745 4.8616915 0
-4.8813574 -3.3825046 0
-1.4389851 -5.9970515 0
-6.6570714 5.4054945 0
14.733932 -6.3682082 0
10.306604 -0.14872379 0
0.21087775 22.962808 0
1.6875184 10.707876 0
8.8420193 -9.0870537 0
-1.1292357 -8.3788077 0
-4.9037529 -9.1033639 0
-14.907336 -1.8811374 0
-3.0473606 4.0060865 0
-3.550211 -1.5008832 0
-4.1500113 -3.2441154 0
-8.992985 -2.5730227 0
1.134916 -0.80768003 0
-15.801381 -6.2131291 0
-4.0984548 2.1565929 0
-3.4559986 -5.7517399 0
3.1320685 17.927957 0
-7.6373544 -10.735362 0
16.480547 -1.3550164 0
2.0510215 4.3601 0
-10.368815 4.7370334 0
-5.1559591 0.93432953 0
13.510899 -10.968236 0
-3.2106694 2.3127272 0
0.64799761 8.835559 0
-0.53746393 -4.7582821 0
-4.443911 14.228003 0
1.468766 13.663596 0
1.1729715 0.91858119 0
-4.1459021 -4.4899175 0
-2.7553106 -9.3166498 0
3.860805 -2.8194967 0
-2.7892367 4.8372446 0
16.886672 -4.0984742 0
12.587649 -12.941769 0
-3.3937774 -11.896705 0
1.4597711 7.0496797 0
6.4130909 6.5524078 0
12.157919 6.7670808 0
0.58982415 0.56304035 0
-2.9062069 -0.10137266 0
5.5915147 3.5996558 0
-0.47060815 0.41308856 0
11.401925 -14.182974 0
2.2527059 -5.9347031 0
-6.7389715 6.0358427 0
1.4741975 9.9695137 0
0.73095406 -5.0577623 0
-9.2039638 9.7256318 0
-11.11127 -6.8009791 0
6.4557799 -0.79348459 0
-1.0630589 -10.426741 0
6.5928842 5.8095179 0
-1.8573252 -0.86701104 0
3.9466542 -13.879275 0
2.537509 -1.774742 0
6.3613888 0.17956441 0
4.6497457 -13.544673 0
-3.5043162 4.7521356 0
1.2418348 8.7118436 0
-0.72308213 3.8799786 0
7.8901001 10.368532 0
-1.0338032 1.4422734 0
-8.4888596 15.966892 0
-0.76072009 -1.3187583 0
-2.3442243 -10.583317 0
-3.0036329 -5.2958628 0
-2.6293523 -4.7456181 0
5.9442548 -0.60666803 0
2.7125802 1.5799092 0
-12.326281 -3.3033726 0
2.6192414 -3.2437974 0
2.1967648 17.201824 0
-11.474463 1.3116074 0
10.687954 -5.5490666 0
-2.5888764 3.6321491 0
-10.967754 -3.6786974 0
-2.2503259 -3.1143777 0
0.47115582 14.494986 0
3.372446 -12.746356 0
-4.6452056 -16.314132 0
1.7408391 4.9348086 0
2.4738503 7.4831271 0
-10.320863 -12.409897 0
-1.0955027 10.659189 0
0.79450746 2.4052777 0
-7.5775451 -7.7529025 0
-7.1795426 -7.9927446 0
-9.3667483 -0.36695061 0
8.7896059 -13.847421 0
0.66007608 -12.693661 0
2.6519705 1.6750947 0
-3.9500186 -11.041869 0
8.1274303 -12.420844 0
1.243989 10.255199 0
-1.5409279 0.71715726 0
-11.61023 0.047947657 0
-2.7861729 -3.7107672 0
4.8345303 -4.747198 0
8.9274914 5.1827408 0
1.4406748 -14.927903 0
10.742174 -2.4855309 0
-6.2506174 -5.402959 0
5.0078317 1.7191586 0
3.474716 -15.585501 0
-7.8235025 -9.5392164 0
-1.9733907 1.7973279 0
3.8554693 -8.8679913 0
-5.9157344 -11.873561 0
-14.8742 5.6499824 0
-3.9495313 1.6399894 0
11.554677 -16.512118 0
6.18429 -8.0668046 0
-10.607432 5.9791011 0
0.12297336 4.8980253 0
2.1216089 -3.2460941 0
-10.173589 3.1935697 0
4.4182275 -6.3804604 0
-6.6334759 -11.334727 0
0.1156959 9.0399082 0
-9.6291432 -4.5875451 0
-8.1769379 4.6778665 0
-9.3929051 0.70294853 0
-0.3656022 7.9308391 0
-9.2189865 7.9386252 0
-3.7347798 -13.851751 0
-7.5960413 -0.045815789 0
2.7835607 9.3004661 0
-8.9369987 0.80340254 0
-3.9488925 -2.5131941 0
-7.1221227 -15.018033 0
-1.1475971 8.0121781 0
2.9966921 -0.1859362 0
3.1358816 -13.781409 0
-2.3286403 -15.455997 0
-1.0035879 1.8155548 0
-1.4609507 -1.7474384 0
7.7332471 2.1412531 0
-8.6878509 -0.2500068 0
-1.3542976 2.8492692 0
-5.7389603 -4.1842469 0
-1.9386525 -3.6033517 0
6.7986185 -2.5741063 0
-1.747922 -1.7647811 0
-11.99219 4.1919391 0
-8.3762518 -7.6770173 0
0.1681386 -5.9716432 0
3.6385868 4.0280893 0
-7.4055948 -2.131096 0
-11.378421 10.053767 0
9.96695 -1.4575642 0
0.089025954 10.734271 0
3.731587 2.8041654 0
-9.0855774 7.1225081 0
7.9152513 -6.5258356 0
9.8448894 -11.605569 0
3.11614 -7.0182296 0
0.03485961 -6.6940252 0
0.19607513 17.417385 0
-5.2800231 -16.386942 0
8.3853517 -2.7411841 0
-10.104883 5.808376 0
12.012739 -5.676741 0
1.9375859 -2.6211808 0
11.922998 7.2270595 0
-1.5497097 -4.5589017 0
6.8173157 6.6498995 0
14.736733 -8.4608844 0
7.03242 -5.5651739 0
-2.3930983 3.3556321 0
10.290786 -14.177362 0
-0.28467934 15.002276 0
0.091486037 -2.5537088 0
-5.3234029 3.1122151 0
-1.7682488 -6.5418373 0
-9.1157412 3.2010754 0
3.3602215 5.3969627 0
-5.9043251 0.40321871 0
6.2747581 8.8217747 0
7.9353623 3.0337223 0
-10.81961 0.078217145 0
-2.8399621 -0.45431607 0
-18.155827 -10.872809 0
-4.7696476 2.7565321 0
1.4951379 -10.143497 0
-2.2222116 5.6619387 0
-3.2756399 -2.0515507 0
-12.611629 8.9664389 0
3.4464821 -2.4567037 0
-2.7042773 13.613 0
-13.954329 -8.6794821 0
-11.244083 -1.6734037 0
-6.0241598 -16.93807 0
9.0809761 9.4134336 0
12.602842 3.8358807 0
-16.167533 -2.4029602 0
-8.2795774 -7.8634755 0
-3.390532 -11.849083 0
-5.2075563 0.67920264 0
0.0040738763 -1.2889667 0
2.1111597 5.6993654 0
-10.450971 -1.866504 0
-0.047473099 5.7984275 0
-8.2712911 0.27940394 0
-3.6902533 -5.3393634 0
-11.744029 1.4624672 0
-10.116943 -7.0426319 0
-6.2111852 8.5459739 0
-16.785555 0.85706957 0
-2.4699796 1.5459122 0
2.7770377 -7.5348379 0
-10.920536 -0.58836825 0
4.0393606 2.4840817 0
3.3470634 4.8754916 0
1.084121 -1.0384659 0
-10.246274 -2.2445993 0
-1.3416801 8.3598927 0
-4.9505788 -7.5206047 0
-8.802552 3.000063 0
3.3239827 0.11594969 0
-1.7302569 0.42376918 0
-4.5315706 8.9102988 0
-3.5315439 -3.6546189 0
8.7037469 2.9949666 0
-8.6945508 1.782272 0
2.7578888 0.13707351 0
-6.0165055 -0.13203415 0
-10.005205 5.3095187 0
-11.159419 3.2017998 0
-9.853488 -10.616388 0
-10.437587 0.19250702 0
-2.1867873 2.1063417 0
8.0021888 -9.1307356 0
5.1343058 -1.7502566 0
-7.7862861 -3.816412 0
1.7595968 0.14379821 0
-4.1467391 7.5819959 0
-9.1150261 3.0532733 0
-8.5779937 3.8793897 0
-8.5610955 3.8626401 0
-5.160566 6.3907382 0
4.9873629 -3.9326801 0
4.7253565 -5.3085871 0
-8.308458 3.4009392 0
-7.9247308 -3.0591517 0
5.1554405 -12.900618 0
4.3823278 10.333521 0
-2.6646196 -9.8487695 0
3.5788092 0.22896841 0
8.0935753 13.393829 0
-10.067737 -0.4674993 0
0.20346671 -7.0037809 0
-2.9236624 8.8431233 0
-10.026462 9.1841853 0
0.82932482 -12.767685 0
-9.9998896 0.073498061 0
-10.046267 0.17417266 0
-1.1026623 -4.0461316 0
-6.6484556 1.3207302 0
6.9182676 -5.4237023 0
-8.6703589 -4.8699234 0
-13.507974 3.4810845 0
0.30149169 -3.9866582 0
-11.247952 0.56119588 0
-2.9781779 18.250526 0
-1.6859419 -2.2219431 0
-2.5378243 10.377147 0
2.7739037 -13.405184 0
-4.3206581 -1.1220988 0
-3.3639517 10.657507 0
5.5162825 3.8216495 0
7.5428699 2.4939401 0
7.2999494 -2.2171566 0
-10.630863 -6.9722276 0
-11.152377 0.78695424 0
-2.9661943 -6.6582478 0
-13.496607 7.5176242 0
-12.560223 8.7720902 0
3.3785011 9.8877217 0
-10.019708 0.012531233 0
-0.38456292 3.1581189 0
-9.7263864 -1.9070342 0
-9.9796886 0.086421596 0
-3.797223 -6.1499062 0
-8.4913424 -2.8356888 0
-8.4836679 -2.8353664 0
-8.4982532 -2.835412 0
-8.4834129 -2.8351612 0
-8.4832946 -2.8350323 0
-8.4833942 -2.8351149 0
-8.4831233 -2.8354054 0
-8.48632 -2.8309423 0
-8.4649875 -2.8536849 0
-8.490073 -3.0965721 0
13.982435 1.9196757 0
0.80781636 -0.51960314 0
-0.68662102 -1.2792263 0
-13.552525 2.934756 0
0.15417827 3.3005064 0
-4.8698666 9.5780411 0
-10.02375 -0.034369052 0
2.1356267 -0.22758045 0
-4.5668061 9.5580231 0
-9.9056582 5.8357687 0
-10.000007 0.0087251956 0
-10.116585 0.3876247 0
6.5809778 2.5579725 0
-10.850021 -9.6242954 0
-9.9058427 -0.0041604269 0
6.4743934 1.2203355 0
-10.205338 1.095599 0
2.6430828 -4.8637648 0
16.256885 -5.5864816 0
2.3431168 -4.5553603 0
-1.6838045 -6.435299 0
-10.138164 0.021821666 0
-9.962701 0.53389093 0
3.7524151 -7.5203737 0
-0.42768977 6.8549752 0
8.1185673 -6.5846472 0
-2.7141182 -1.9230388 0
-2.9811824 -10.589765 0
-7.3805767 2.4861887 0
-7.9764307 2.1448305 0
-7.9108967 2.1831598 0
-7.8442517 2.2291241 0
-7.8435799 2.2301143 0
1.1049349 10.608967 0
-9.6805945 -0.20325748 0
-10.00001 0.0088444972 0
-10.005013 0.011738919 0
-0.62847996 -1.1360593 0
-0.64653091 -11.175138 0
-9.9985343 0.001881509 0
-4.986953 11.551706 0
1.1023305 1.7994688 0
-9.7130895 0.55090319 0
-9.3064082 3.108442 0
-10.06823 -0.41733636 0
-10.63821 -2.8181549 0
-10.389808 -1.4391194 0
-9.9439095 -0.18512721 0
-9.9496972 -0.18362052 0
-9.9408083 -0.17541502 0
-9.3408644 1.4591569 0
-8.894905 3.591721 0
-9.9636445 3.0354192 0
-6.098112 3.3298723 0
-8.1465534 12.373271 0
0.95903182 2.0698668 0
4.1613388 11.839669 0
-10.129713 -8.0042649 0
-4.2030053 9.4238548 0
0.15626218 2.9417165 0
-10.000002 0.0088126112 0
-10.000097 6.6778373e-05 0
-10.030459 0.019881216 0
-10.002802 -0.00081665772 0
-9.9849517 0.032761093 0
-10.536977 0.59016517 0
5.8999028 8.5582854 0
5.8993189 8.5621314 0
5.8993535 8.5620948 0
5.8993188 8.5621372 0
5.8993337 8.5621191 0
5.8993163 8.56214 0
5.8991314 8.5623752 0
5.9026236 8.5579519 0
5.7997658 8.6815972 0
2.9920602 5.9261373 0
-1.028035 -10.039477 0
-0.27035586 -9.6361046 0
-0.31867427 -9.6712353 0
-0.40532292 -9.720852 0
-0.40725024 -9.7207452 0
-5.2845208 3.1268278 0
-10.266573 -1.3176864 0
-10.001073 -0.0044043139 0
-10.011299 -0.0059618052 0
-9.9999976 0.008808424 0
-10.000001 -1.0808699e-05 0
-10.00002 4.3870153e-06 0
-10.000029 1.968692e-05 0
-10.003156 0.001794832 0
-10.003178 0.0023075027 0
1.7969761 10.916583 0
-9.9804086 -0.040394052 0
-9.9803497 -0.040270591 0
-9.9803471 -0.040266495 0
-9.9803445 -0.040268416 0
-9.9803458 -0.04026779 0
-9.9803404 -0.04027594 0
-9.980384 -0.040167979 0
-9.9807692 -0.039787982 0
-9.6790568 -2.7312755 0
-9.9944042 -0.034258419 0
-10.002008 0.00019917763 0
-10.002008 0.00023449783 0
-10.001995 0.00023115852 0
-10.001995 0.0002415121 0
-9.9992004 0.0023653308 0
3.1759219 -13.819303 0
-9.9904984 -0.014182169 0
-10.000006 -0.0088345189 0
-9.9999974 0.0088084238 0
-9.9999973 -1.2879186e-05 0
-9.9999967 -1.1004911e-07 0
-9.9999976 1.3031461e-06 0
-10.000011 5.9595056e-06 0
-10.000039 2.3931394e-05 0
-10.000627 0.00030663491 0
-10.006481 -0.0022573543 0
-10.006464 -0.0022499658 0
-10.006464 -0.0022491457 0
-10.006463 -0.0022490414 0
-10.006463 -0.0022490863 0
-10.006463 -0.0022490687 0
-10.006465 -0.0022456803 0
-10.006497 -0.0021993716 0
-10.021712 0.16453984 0
-10.000268 -0.0034285743 0
-10.000016 -1.5388313e-05 0
-10.000011 1.0627391e-06 0
-10.00001 1.0574497e-06 0
-10.000016 2.074066e-05 0
-10.02345 0.021096273 0
-10.00231 -0.0013113211 0
-10.002171 -0.0012826497 0
-10.000001 -0.0088197733 0
-9.9999727 0.0088084169 0
-9.9999943 -1.13911e-05 0
-9.9999942 8.64496e-07 0
-9.9999942 1.4630628e-06 0
-9.9999942 1.4630378e-06 0
-9.9999947 1.8109416e-06 0
-10.000001 3.4093168e-06 0
-10.000008 1.6432538e-06 0
-10.000008 1.2827013e-06 0
-10.000008 1.2827267e-06 0
-10.000008 1.2823544e-06 0
-10.000007 1.7694727e-06 0
-10.000007 1.7704428e-06 0
-10.000007 1.7786917e-06 0
-10.000015 1.074479e-05 0
-10.000661 0.00033263013 0
-10.000134 -0.00012182181 0
-9.9999946 -2.6519521e-07 0
-9.9999929 2.435e-06 0
-9.9999929 2.4320163e-06 0
-9.9999937 4.2454723e-06 0
-10.00001 7.9145775e-06 0
-10.000009 4.8205035e-07 0
-10 1.3264012e-05 0
-9.9999923 -0.0088054932 0
-9.9999403 0.008808396 0
-9.9999915 -9.4206959e-06 0
-9.9999916 2.8098459e-06 0
-9.9999916 3.4084432e-06 0
-9.9999917 3.4203764e-06 0
-9.9999922 2.4230311e-06 0
-9.9999915 2.922805e-06 0
-9.9999909 3.4105537e-06 0
-9.9999908 3.4099201e-06 0
-9.9999908 3.4099679e-06 0
-9.9999908 3.4099663e-06 0
-9.9999908 3.3934277e-06 0
-9.9999903 3.9113456e-06 0
-9.9999902 3.9015797e-06 0
-9.9999905 4.1234027e-06 0
-9.9999933 4.4474301e-06 0
-9.9999922 3.2187416e-06 0
-9.99999 3.9027627e-06 0
-9.9999901 3.9020057e-06 0
-9.9999895 4.3878089e-06 0
-9.9999889 4.8793209e-06 0
-9.9999888 4.8760446e-06 0
-9.9999887 5.4740541e-06 0
-9.9999886 1.7760086e-05 0
-9.9999886 -0.0088035171 0
-9.9999167 0.0088083865 0
-9.9999883 -7.9011827e-06 0
-9.9999884 4.2794955e-06 0
-9.9999884 4.8783728e-06 0
-9.9999883 4.8786501e-06 0
-9.9999882 4.8769564e-06 0
-9.9999876 4.8771561e-06 0
-9.9999876 5.3647208e-06 0
-9.9999874 5.36486e-06 0
-9.9999874 5.364919e-06 0
-9.9999874 5.3647947e-06 0
-9.9999874 5.2914534e-06 0
-9.999977 1.3219901e-05 0
-9.9999769 1.3145687e-05 0
-9.999977 1.3144901e-05 0
-9.9999759 1.3631923e-05 0
-9.9999759 1.4121429e-05 0
-9.9999758 1.4119856e-05 0
-9.9999758 1.4116431e-05 0
-9.9999758 1.4123981e-05 0
-9.9999758 1.4124685e-05 0
-9.9999758 1.4123915e-05 0
-9.9999756 1.4714104e-05 0
-9.9999751 2.7501419e-05 0
-9.9999749 -0.0087937454 0
-9.9997559 0.008808295 0
-9.9999747 1.9989951e-06 0
-9.9999742 1.400943e-05 0
-9.9999742 1.5096121e-05 0
-9.9999731 1.6075069e-05 0
-9.9999731 1.6071747e-05 0
-9.9999731 1.607182e-05 0
-9.9999731 1.6067442e-05 0
-9.9999726 1.6562681e-05 0
-9.999972 1.6557598e-05 0
-9.999972 1.7045157e-05 0
-9.9999719 1.7047102e-05 0
-9.999972 1.7057487e-05 0
-9.9999715 1.7050999e-05 0
-9.9999716 1.7535391e-05 0
-9.999971 1.8030999e-05 0
-9.9999709 1.802653e-05 0
-9.9999709 1.802661e-05 0
-9.9999708 1.7975685e-05 0
-9.9999658 2.2940187e-05 0
-9.9999657 2.2888495e-05 0
-9.9999652 2.2884302e-05 0
-9.9999651 2.3976708e-05 0
-9.9999651 3.6255487e-05 0
-9.9999643 -0.0087844614 0
-9.9996059 0.0088082291 0
-9.9999634 1.1338023e-05 0
-9.9999633 2.3257029e-05 0
-9.9999633 2.4350982e-05 0
-9.9999627 2.4823651e-05 0
-9.9999616 2.5817243e-05 0
-9.9999615 2.5806994e-05 0
-9.9999615 2.5807651e-05 0
-9.9999616 2.5808365e-05 0
-9.9999615 2.5810653e-05 0
-9.9999609 2.5807106e-05 0
-9.9999609 2.6301887e-05 0
-9.9999603 2.6297219e-05 0
-9.9999603 2.6779722e-05 0
-9.9999593 2.7754338e-05 0
-9.9999588 2.8253841e-05 0
-9.9999587 2.8243634e-05 0
-9.9999569 2.8730626e-05 0
-9.9999569 2.9706787e-05 0
-9.9999571 2.9710325e-05 0
-9.999957 2.9706931e-05 0
-9.9999571 2.9706937e-05 0
-9.999957 3.0309982e-05 0
-9.999957 4.2594544e-05 0
-9.9999569 -0.0087785932 0
-9.9995055 0.0088101711 0
-9.9999529 1.0570285e-05 0
-9.9999513 2.3768937e-05 0
-9.9999507 2.4854595e-05 0
-9.9999502 2.4845027e-05 0
-9.9999487 2.5811555e-05 0
-9.9999481 2.7288588e-05 0
-9.9999391 2.7776876e-05 0
-9.9999383 2.8245131e-05 0
-9.9999371 2.9237077e-05 0
-9.9999366 3.0200219e-05 0
-9.9999366 3.0198054e-05 0
-9.9999361 3.0195536e-05 0
-9.999936 3.0677205e-05 0
-9.9999354 3.1182021e-05 0
-9.9999349 3.1166646e-05 0
-9.9999344 3.1661826e-05 0
-9.9999344 3.2147788e-05 0
-9.9999343 3.2145778e-05 0
-9.999926 3.2139119e-05 0
-9.9999253 3.3120965e-05 0
-9.9999168 3.3601834e-05 0
-9.999917 3.4196895e-05 0
-9.9999172 4.6269161e-05 0
-9.9999226 -0.0087766476 0
-10.007767 0.0083212902 0
-10.008739 2.6948785e-05 0
-10.008738 3.3160709e-05 0
-10.008737 3.4250184e-05 0
-10.008735 3.5229898e-05 0
-10.008735 3.5717127e-05 0
-10.008735 3.572601e-05 0
-10.008736 3.5223554e-05 0
-10.008752 3.5235543e-05 0
-10.008752 3.5235206e-05 0
-10.008751 3.473285e-05 0
-10.008743 3.5727518e-05 0
-10.008743 3.6204868e-05 0
-10.008742 3.6703719e-05 0
-10.008742 3.6698105e-05 0
-10.008742 3.7190077e-05 0
-10.00874 3.7678503e-05 0
-10.008741 3.8175777e-05 0
-10.008741 3.8174003e-05 0
-10.008741 3.8164705e-05 0
-10.008739 3.9166142e-05 0
-10.00874 3.9145188e-05 0
-10.008731 4.0216222e-05 0
-10.008732 4.725877e-05 0
-10.008244 -0.0082825274 0
9.3664167 -3.8409601 0
-10.137842 -2.5611769 0
7.2629507 13.187038 0
7.0388164 -11.3995 0
-8.2527578 7.8147163 0
3.2402684 1.3886746 0
0.13368065 -6.8683828 0
-5.1569949 4.8733101 0
0.28745104 4.4932137 0
-1.5941784 -6.0456736 0
7.4300993 -13.100022 0
6.691413 -0.55447358 0
-10.394929 -5.0664012 0
3.0717605 22.429935 0
-2.8222308 -5.1976356 0
-2.6288409 -5.1577516 0
-7.2379534 -0.15066769 0
-16.586608 -17.678618 0
6.7127916 12.218398 0
-1.3269171 12.089618 0
22.157382 -4.9202905 0
1.9053705 3.9945069 0
8.1135328 4.3724559 0
-2.6284204 22.954793 0
-9.4775651 5.5651905 0
-6.2135543 -4.3697293 0
2.9420987 -4.5699511 0
3.5790353 0.17745076 0
-7.0846875 -9.2932842 0
9.4640982 -7.8883762 0
0.58015836 -7.7651133 0
7.4864878 -3.8982994 0
-7.2564059 -4.405901 0
-0.82966697 5.5114804 0
-10.873656 10.088027 0
-5.1012203 4.9343855 0
-0.51600335 -8.5182606 0
0.48361476 2.069106 0
-9.6078015 -5.1643603 0
7.580761 11.849053 0
3.1142737 4.0993879 0
-5.6902417 -1.4301767 0
4.055341 -7.4210519 0
-6.9618244 2.6157121 0
-1.3190193 12.034007 0
9.8574987 -1.2588642 0
-5.7309303 6.9580702 0
6.1974097 0.2173504 0
-1.0911445 -6.0305275 0
-0.12121103 9.3399619 0
8.2361604 -6.0208261 0
1.8473963 1.644967 0
-3.5225303 -15.886421 0
-1.1292396 2.7269044 0
4.9471017 9.5745861 0
16.603533 5.608472 0
-13.036973 0.75198594 0
-3.6933921 -0.12101807 0
-7.543455 7.5000493 0
13.71135 6.7490708 0
1.4466433 8.9781026 0
6.1602494 -1.0529355 0
-3.8279866 -0.81759549 0
-2.419153 3.0135429 0
16.390891 -9.1613218 0
7.9348058 -4.3745401 0
-9.5496728 6.0610931 0
10.578785 -3.6329351 0
-3.6224816 -1.104849 0
-6.5855225 9.0183894 0
-4.8840684 2.3157964 0
4.905868 10.163633 0
5.7251278 3.7613465 0
4.4936554 -1.0352316 0
-6.2893079 11.929529 0
-6.5485083 -6.7367907 0
-1.9777799 -10.56421 0
-11.200135 -4.7556918 0
-2.3735187 -0.6300219 0
-3.149563 2.3960068 0
6.1516435 4.9847632 0
-2.329519 -7.3679967 0
10.712877 1.0236415 0
0.61095963 4.6395719 0
-7.5963725 1.1796015 0
-11.798692 1.7067001 0
-15.120781 0.44850202 0
-7.6842784 -4.0868627 0
-1.1031646 7.1264629 0
2.5902018 -3.5773859 0
6.1784664 2.827284 0
-5.3825333 3.6056914 0