# vtk DataFile Version 4.0
hesp visualization file
ASCII
DATASET UNSTRUCTURED_GRID
POINTS 1250 double
27.981345 -0.84441805 4
29.391288 -0.37293583 4
32.037586 4.3474004 4
28.638538 7.9597852 4
31.0722 3.7569617 4
33.042538 6.4755727 4
33.703784 2.3032817 4
32.973715 10.403033 4
31.322889 9.1335614 4
27.663422 9.1174083 4
33.703128 11.556313 4
29.397456 13.829672 4
31.668 13.720936 4
32.896064 13.889174 4
28.774728 17.818466 4
33.241335 15.347131 4
27.681064 21.983623 4
31.179614 22.644823 4
29.326634 21.787563 4
30.446572 24.425122 4
29.82341 23.248017 4
31.523657 25.320882 4
30.262984 24.129892 4
30.642119 31.955669 4
29.737543 31.300441 4
36.96498 -5.2231534 4
28.904181 2.3056886 4
28.586899 -2.0583895 4
28.115153 4.8073429 4
29.743712 4.2794787 4
30.063382 3.9472852 4
27.821123 3.4908853 4
27.554538 6.8275695 4
29.875593 7.7268954 4
28.288133 9.7671393 4
29.42556 13.223493 4
29.215675 10.44408 4
28.838629 15.239707 4
25.77691 13.675692 4
32.554996 14.018923 4
28.976379 22.026558 4
28.745944 17.196365 4
27.237476 19.740979 4
32.462165 20.914017 4
32.615591 21.398459 4
30.92332 27.420666 4
32.043476 21.963413 4
27.421995 29.359918 4
29.480123 33.096235 4
32.583949 29.341903 4
25.923594 1.1873171 4
29.759204 -3.9443779 4
31.21778 2.2624888 4
32.89886 5.5451803 4
31.934565 0.56555061 4
33.230335 4.2026787 4
31.641997 2.3952314 4
31.186208 8.8534307 4
30.595224 9.5950133 4
33.414733 11.728112 4
32.326302 11.350998 4
30.209683 10.849463 4
31.245064 11.226829 4
33.134877 11.050916 4
32.707653 11.76766 4
31.513434 14.314842 4
29.79886 17.261328 4
33.738931 18.040507 4
30.322821 16.505475 4
29.601753 24.050044 4
28.561127 19.491371 4
32.773309 21.679756 4
29.739683 22.201234 4
32.230681 28.199489 4
31.543428 26.593667 4
35.621685 -8.4087439 4
31.707908 -0.80837426 4
31.862591 5.5180088 4
32.109061 1.0772317 4
27.668579 6.4374564 4
30.591928 8.2116293 4
29.121714 9.7959217 4
30.448431 10.58741 4
28.374791 11.155243 4
33.799755 11.876396 4
29.684116 15.359735 4
32.732437 11.218724 4
30.426491 15.550487 4
30.387752 19.589244 4
31.261888 15.343235 4
31.624518 15.305696 4
29.2397 18.014644 4
33.069331 15.050209 4
31.744953 19.56439 4
33.00375 19.560635 4
33.336642 19.125336 4
31.853584 21.587184 4
29.160858 23.142626 4
29.257343 26.235043 4
32.321152 36.940582 4
33.48131 -3.9589353 4
30.809583 -2.9223408 4
35.885652 3.6376968 4
33.968075 6.5444273 4
29.092706 1.2670876 4
33.448996 8.2198435 4
32.59095 5.4689657 4
31.986774 6.0199035 4
32.051242 7.124917 4
31.914235 8.9960013 4
33.192999 8.2667608 4
33.494369 9.393631 4
34.888941 11.751213 4
33.134667 11.735454 4
33.337132 12.997635 4
33.8174 16.7693 4
33.146983 16.74395 4
32.908752 19.859021 4
30.251959 18.107686 4
35.37597 19.954287 4
33.67849 22.977617 4
31.949194 19.815666 4
35.234568 22.275241 4
34.341304 26.282478 4
31.247085 27.611673 4
29.17062 -3.3335437 4
28.563451 0.95244959 4
34.235237 6.5789427 4
35.80071 7.9646227 4
34.510208 5.5213334 4
32.691176 9.1668759 4
34.273664 9.4669419 4
36.083586 8.9133818 4
35.101305 11.089067 4
33.816686 14.064978 4
34.683369 15.229579 4
35.752892 14.948207 4
33.929662 17.307885 4
35.817173 16.997907 4
31.637184 18.305769 4
33.748427 22.283504 4
33.834375 20.31347 4
34.076993 22.444998 4
34.186546 22.915762 4
35.187898 24.815696 4
32.251469 27.563791 4
31.660966 22.41158 4
32.786086 27.807538 4
34.325699 31.181728 4
27.496757 28.848302 4
33.037668 3.5006614 4
29.936463 -5.1535715 4
37.350946 5.3897023 4
32.334597 2.4806453 4
30.833108 5.0894662 4
28.549204 5.9309712 4
31.878287 7.5881947 4
32.06805 10.240999 4
30.518999 11.791739 4
29.571853 10.536721 4
32.807854 12.931051 4
30.166153 13.068649 4
30.877714 14.199428 4
34.386509 14.84207 4
30.481344 14.699937 4
29.602854 17.585856 4
30.432464 16.965413 4
31.665492 19.903543 4
32.987295 23.65458 4
30.491741 21.688071 4
31.623007 23.437508 4
33.627273 24.879901 4
33.071152 25.48619 4
34.574923 23.662915 4
30.095587 30.444031 4
39.770398 -2.8957444 4
32.499674 2.9598981 4
32.234847 1.6715053 4
36.021531 5.665932 4
33.896202 8.9882656 4
30.856992 2.8819269 4
32.041665 7.9559419 4
29.8466 9.4168016 4
34.425499 9.0432539 4
36.845268 9.6325423 4
32.673312 13.792896 4
32.69746 13.297814 4
32.633706 16.238491 4
32.523468 15.18531 4
36.039329 15.185271 4
33.087926 18.922215 4
34.449704 18.906785 4
33.008386 22.61654 4
32.227522 21.686127 4
30.615808 23.415519 4
31.134226 23.311201 4
30.671128 26.772522 4
35.094311 26.937231 4
31.535792 27.174495 4
38.617703 33.068911 4
33.621762 1.3370812 4
33.889333 2.6097068 4
34.10744 1.2620506 4
31.160686 1.8164885 4
34.179646 4.0665592 4
33.645862 2.6571342 4
34.05062 8.181483 4
34.104355 9.9535229 4
33.301299 12.129901 4
35.124708 12.485503 4
34.022098 14.827218 4
33.015049 14.369567 4
32.975189 15.854316 4
33.496125 16.914179 4
34.818423 17.069561 4
34.969145 19.413968 4
30.616994 16.170045 4
31.971461 16.248473 4
31.670381 17.602265 4
34.791797 18.991128 4
35.40142 24.001723 4
34.674513 26.193211 4
36.244881 24.393227 4
35.502203 27.491395 4
34.236273 27.239113 4
32.359153 -0.35939491 4
30.196053 1.9353738 4
34.188023 2.629226 4
35.469677 7.4270621 4
32.692774 6.9337034 4
35.092407 7.3896522 4
35.918959 7.4029537 4
34.422629 8.7185124 4
36.319108 11.177977 4
36.310339 12.68819 4
35.316852 13.057729 4
34.069365 14.184982 4
35.35862 16.680925 4
35.718356 16.202393 4
34.289952 18.068818 4
37.195181 19.963649 4
36.852834 20.824767 4
36.733874 22.360663 4
35.514327 22.052943 4
38.038441 24.818444 4
34.39976 25.438383 4
35.494273 26.63492 4
34.845628 27.793684 4
33.321551 28.964145 4
30.939235 28.270734 4
32.04983 -0.92958784 4
32.07966 2.26812 4
32.70353 3.117737 4
35.063418 2.8651537 4
37.421905 4.8019169 4
35.64187 4.5114707 4
36.771451 6.6942297 4
35.737719 8.2283604 4
35.412965 9.4698478 4
35.484347 10.707793 4
35.486577 11.831589 4
35.924463 13.301744 4
37.261473 12.43782 4
37.252912 13.529242 4
35.431526 16.108515 4
34.339904 15.943427 4
35.600044 17.913125 4
34.019148 18.289418 4
34.5417 19.78717 4
34.871017 20.558312 4
37.162957 25.673659 4
33.521787 23.710477 4
33.49582 24.341413 4
35.396316 27.877151 4
32.144424 30.48043 4
37.60436 -3.9852594 4
33.242191 2.0631633 4
33.286928 3.4161551 4
37.685117 6.0095507 4
33.493471 7.5707071 4
37.414789 6.9535674 4
34.00869 8.4280989 4
33.757269 9.6954861 4
34.799154 10.478215 4
33.878673 11.017074 4
34.573068 14.569177 4
34.970954 13.75124 4
34.331686 15.630669 4
35.796503 13.724972 4
35.963661 17.796249 4
36.230961 19.570089 4
35.685255 19.752544 4
36.057624 20.859898 4
34.994795 22.682641 4
33.362483 20.956144 4
33.687199 24.098859 4
35.587531 24.650792 4
32.896898 26.618225 4
36.186767 28.785997 4
38.185059 31.692798 4
34.388977 1.1276211 4
37.018606 3.0648357 4
35.093514 3.263775 4
34.395283 4.5086747 4
38.468896 5.736841 4
37.787357 7.3633228 4
37.787903 8.4861575 4
38.245124 9.7182732 4
37.787972 10.731122 4
37.787985 11.8536 4
37.787972 12.976049 4
37.788011 14.098469 4
37.787535 15.221602 4
37.790643 16.3402 4
37.789918 17.448242 4
41.205461 18.420206 4
37.344434 21.089226 4
37.220936 22.167754 4
36.269492 23.5332 4
37.48172 24.128831 4
36.812011 26.213282 4
36.514513 26.741254 4
38.518562 26.041078 4
36.806536 29.594975 4
34.40058 28.736106 4
35.514457 1.1270731 4
35.490748 2.3084367 4
36.591246 3.5955632 4
36.429501 2.9705956 4
35.528965 5.5872183 4
37.836163 6.9282138 4
36.417576 7.8343409 4
37.162146 8.4359891 4
37.634271 9.3959342 4
37.082877 10.647753 4
36.528684 11.582409 4
35.665798 13.331405 4
35.510542 14.685731 4
36.593995 15.154297 4
36.215538 17.383942 4
38.648814 16.908836 4
37.721803 18.513731 4
38.221412 17.934353 4
38.052558 19.554438 4
38.029743 20.664709 4
38.03307 21.788914 4
38.035533 22.913209 4
38.035465 24.03569 4
39.761719 26.945796 4
35.603585 28.049991 4
36.636929 1.1270763 4
36.636492 2.2457536 4
36.982524 3.3583383 4
37.511608 3.2785502 4
36.636205 5.6144076 4
37.298338 8.2021269 4
37.105381 7.9028676 4
36.656868 8.9806634 4
36.683946 10.256374 4
36.638851 11.178761 4
36.621346 12.215689 4
36.629445 13.389629 4
36.646548 14.557991 4
36.645962 15.679986 4
36.646784 16.803695 4
36.716517 18.119787 4
36.811786 19.650454 4
36.649949 20.353176 4
36.835318 21.736276 4
36.766606 23.277427 4
37.388626 23.605513 4
37.577226 25.488297 4
36.642354 24.544415 4
36.989468 27.513067 4
37.552205 28.323798 4
37.759393 1.1270725 4
37.759386 2.244943 4
37.930329 3.3300246 4
37.7591 4.4898735 4
37.75992 5.6150238 4
38.697305 7.7460696 4
39.786632 9.0154995 4
39.786627 10.13871 4
39.786627 11.261161 4
39.786627 12.383635 4
39.786627 13.506092 4
39.786627 14.62856 4
39.786626 15.75109 4
39.786643 16.872257 4
39.785218 18.007991 4
39.605692 18.817713 4
38.362708 18.872937 4
38.401903 20.014144 4
38.400095 21.135178 4
38.395574 22.255364 4
38.395459 23.37793 4
38.213891 24.995442 4
38.015585 25.895191 4
37.759249 26.93861 4
37.757546 28.057891 4
38.881856 1.1270722 4
38.881856 2.2449357 4
38.881854 3.3673863 4
38.881854 4.4898499 4
38.881349 5.6125464 4
38.881562 6.734967 4
39.500175 8.4313987 4
38.88191 8.9781536 4
38.881902 10.100633 4
38.881905 11.223097 4
38.881905 12.345559 4
38.881905 13.468021 4
38.881906 14.590482 4
38.881901 15.712954 4
38.882842 16.835134 4
38.907926 17.698004 4
38.882065 19.079914 4
38.881592 20.204311 4
38.881595 21.326776 4
38.881601 22.449239 4
38.881601 23.571701 4
38.881862 24.694309 4
39.799537 24.763948 4
38.882355 26.938292 4
38.881856 28.056939 4
40.004318 1.1270722 4
40.004318 2.2449355 4
40.004318 3.3673861 4
40.004318 4.4898484 4
40.004317 5.6123108 4
40.004315 6.734774 4
40.004262 7.8572667 4
40.197473 9.0107877 4
40.197352 10.132897 4
40.197356 11.255366 4
40.197352 12.377821 4
40.197354 13.500286 4
40.197351 14.622744 4
40.197327 15.745169 4
40.197787 16.868352 4
40.190819 17.995482 4
40.004216 19.081628 4
40.004318 20.204316 4
40.004318 21.326779 4
40.004318 22.449241 4
40.004318 23.571707 4
40.303859 24.472628 4
40.004184 25.816559 4
40.008976 26.939148 4
40.004319 28.05694 4
41.126789 1.1270722 4
41.126782 2.244936 4
41.126782 3.3673865 4
[...]
POINT_DATA 1250
SCALARS m double
LOOKUP_TABLE default
1
1
1
1
1
1
1
1
1
1
1
1
1
1
1
1
1
1
1
1
1
1
1
1
1
1
1
1
1
1
1
1
1
1
1
1
1
1
1
1
1
1
1
1
1
1
1
1
1
1
1
1
1
1
1
1
1
1
1
1
1
1
1
1
1
1
1
1
1
1
1
1
1
1
1
1
1
1
1
1
1
1
1
1
1
1
1
1
1
1
1
1
1
1
1
1
1
1
1
1
1
1
1
1
1
1
1
1
1
1
1
1
1
1
1
1
1
1
1
1
1
1
1
1
1
1
1
1
1
1
1
1
1
1
1
1
1
1
1
1
1
1
1
1
1
1
1
1
1
1
1
1
1
1
1
1
1
1
1
1
1
1
1
1
1
1
1
1
1
1
1
1
1
1
1
1
1
1
1
1
1
1
1
1
1
1
1
1
1
1
1
1
1
1
1
1
1
1
1
1
1
1
1
1
1
1
1
1
1
1
1
1
1
1
1
1
1
1
1
1
1
1
1
1
1
1
1
1
1
1
1
1
1
1
1
1
1
1
1
1
1
1
1
1
1
1
1
1
1
1
1
1
1
1
1
1
1
1
1
1
1
1
1
1
1
1
1
1
1
1
1
1
1
1
1
1
1
1
1
1
1
1
1
1
1
1
1
1
1
1
1
1
1
1
1
1
1
1
1
1
1
1
1
1
1
1
1
1
1
1
1
1
1
1
1
1
1
1
1
1
1
1
1
1
1
1
1
1
1
1
1
1
1
1
1
1
1
1
1
1
1
1
1
1
1
1
1
1
1
1
1
1
1
1
1
1
1
1
1
1
1
1
1
1
1
1
1
1
1
1
1
1
1
1
1
1
1
1
1
1
1
1
1
1
1
1
1
1
1
1
1
1
1
1
1
1
1
1
1
1
1
1
1
1
1
1
1
1
1
1
1
1
1
1
1
1
1
1
1
1
1
1
1
1
1
1
1
1
1
1
1
1
1
1
1
1
1
1
1
1
1
1
1
1
1
1
1
1
1
1
1
1
1
1
1
1
1
1
1
1
1
1
1
1
1
1
1
1
1
1
1
1
1
1
1
1
1
1
1
1
1
1
1
1
1
1
1
1
1
1
1
1
1
1
1
1
1
1
1
1
1
1
1
1
1
1
1
1
1
1
1
1
1
1
1
1
1
1
1
1
1
1
1
1
1
1
1
1
1
1
1
1
1
1
1
1
1
1
1
1
1
1
1
1
1
1
1
1
1
1
1
1
1
1
1
1
1
1
1
1
1
1
1
1
1
1
1
1
1
1
1
1
1
1
1
1
1
1
1
1
1
1
1
1
1
1
1
1
1
1
1
1
1
1
1
1
1
1
1
1
1
1
1
1
1
1
1
1
1
1
1
1
1
1
1
1
1
1
1
1
1
1
1
1
1
1
1
1
1
1
1
1
1
1
1
1
1
1
1
1
1
1
1
1
1
1
1
1
1
1
1
1
1
1
1
1
1
1
1
1
1
1
1
1
1
1
1
1
1
1
1
1
1
1
1
1
1
1
1
1
1
1
1
1
1
1
1
1
1
1
1
1
1
1
1
1
1
1
1
1
1
1
1
1
1
1
1
1
1
1
1
1
1
1
1
1
1
1
1
1
1
1
1
1
1
1
1
1
1
1
1
1
1
1
1
1
1
1
1
1
1
1
1
1
1
1
1
1
1
1
1
1
1
1
1
1
1
1
1
1
1
1
1
1
1
1
1
1
1
1
1
1
1
1
1
1
1
1
1
1
1
1
1
1
1
1
1
1
1
1
1
1
1
1
1
1
1
1
1
1
1
1
1
1
1
1
1
1
1
1
1
1
1
1
1
1
1
1
1
1
1
1
1
1
1
1
1
1
1
1
1
1
1
1
1
1
1
1
1
1
1
1
1
1
1
1
1
1
1
1
1
1
1
1
1
1
1
1
1
1
1
1
1
1
1
1
1
1
1
1
1
1
1
1
1
1
1
1
1
1
1
1
1
1
1
1
1
1
1
1
1
1
1
1
1
1
1
1
1
1
1
1
1
1
1
1
1
1
1
1
1
1
1
1
1
1
1
1
1
1
1
1
1
1
1
1
1
1
1
1
1
1
1
1
1
1
1
1
1
1
1
1
1
1
1
1
1
1
1
1
1
1
1
1
1
1
1
1
1
1
1
1
1
1
1
1
1
1
1
1
1
1
1
1
1
1
1
1
1
1
1
1
1
1
1
1
1
1
1
1
1
1
1
1
1
1
1
1
1
1
1
1
1
1
1
1
1
1
1
1
1
1
1
1
1
1
1
1
1
1
1
1
1
1
1
1
1
1
1
1
1
1
1
1
1
1
1
1
1
1
1
1
1
1
1
1
1
1
1
1
1
1
1
1
1
1
1
1
1
1
1
1
1
1
1
1
1
1
1
1
1
1
1
1
1
1
1
1
1
1
1
1
1
1
1
1
1
1
1
1
1
1
1
1
1
1
1
1
1
1
1
1
1
1
1
1
1
1
1
1
1
1
1
1
1
1
1
1
1
1
1
1
1
1
1
1
1
1
1
1
1
1
1
1
1
1
1
1
1
1
1
1
1
1
1
1
1
1
1
1
1
1
1
1
1
1
1
1
1
1
1
1
1
1
1
1
1
1
1
1
1
1
1
1
1
1
1
1
1
1
1
1
1
1
1
1
1
1
1
1
1
1
1
1
1
1
1
1
1
1
1
1
1
1
1
1
1
1
1
1
1
1
1
1
1
1
1
1
1
1
1
1
1
1
1
1
1
1
1
1
1
1
1
1
1
1
1
1
1
1
1
1
1
1
1
1
1
1
1
1
VECTORS v double
-1.8760992 -7.0697061 0
-4.4414419 -4.7311697 0
-3.6226609 -10.515182 0
-5.1918793 8.0887139 0
-8.2939247 2.3913375 0
4.2359045 2.9389605 0
7.0832489 -10.277532 0
15.418006 3.7117254 0
4.999257 -5.8807186 0
-11.938335 -7.3836916 0
8.0951278 -2.9420886 0
-11.768769 -1.2694561 0
5.5559005 -3.5162035 0
9.3972706 2.9551768 0
-16.048735 6.9388142 0
-0.78779346 -6.2761565 0
-3.4601377 12.934241 0
-6.1071117 3.0754932 0
1.379137 -4.2932852 0
6.3443018 3.2689572 0
-4.4397375 8.1076518 0
14.73045 -6.3241143 0
2.4463583 -9.3369754 0
0.21047092 22.96255 0
1.6871623 10.707538 0
8.8420353 -9.0870258 0
-2.5347128 -5.3006416 0
-4.914265 -9.1041896 0
-8.7279462 8.6378699 0
-2.9049567 3.9022167 0
-3.7018707 -1.499102 0
1.0700763 -8.3531324 0
-10.113763 -3.9927474 0
1.9215056 -4.3067741 0
-15.770674 -6.1802641 0
2.7011196 -19.353173 0
3.1419718 -17.942445 0
14.318161 16.153362 0
-7.6339025 -10.737687 0
-11.938055 -19.243908 0
-3.6949365 5.2781431 0
-5.4680471 -11.54019 0
-4.3942974 2.0870677 0
13.68313 -11.490559 0
-3.5160223 0.96309116 0
0.77196895 8.944633 0
-1.6682645 -1.8381007 0
-2.3051904 2.507126 0
1.4687134 13.663537 0
1.1734396 0.91860291 0
-4.1352098 -4.3387959 0
-2.7557312 -9.3163065 0
-5.4637385 -8.0534064 0
-2.8883128 4.8354836 0
16.877904 -4.1035024 0
12.559799 -12.921725 0
5.9863131 -6.816079 0
1.4706615 7.0927023 0
6.497002 6.6082228 0
8.7768338 7.3888567 0
0.70001778 0.56482558 0
-2.8645481 -0.23032882 0
5.4595335 3.6070877 0
-0.5167785 0.4862453 0
-12.68158 -11.946662 0
2.2348419 -5.9502567 0
-6.7593076 6.0632382 0
0.93163498 10.740326 0
2.1612823 -5.1234779 0
-9.1856986 9.7531587 0
-11.115817 -6.799725 0
6.6253929 0.54763947 0
-1.0787905 -10.401794 0
6.5955898 5.8022739 0
-1.8664551 -0.84648872 0
3.9466542 -13.879275 0
2.6165871 -1.7863587 0
6.3681688 0.18951688 0
3.9613093 -13.060924 0
-3.5103911 4.761204 0
1.2227929 8.7159386 0
-0.74624706 3.8954349 0
7.8218447 10.508099 0
-0.61700071 0.18724771 0
-5.2111602 18.879554 0
-0.74046883 -1.275188 0
-2.3491799 -10.574484 0
-3.0219097 -5.2810199 0
-2.6886874 -4.6700773 0
6.1050303 -0.63148299 0
2.5546465 1.606168 0
-12.363926 -3.3683388 0
1.3086195 5.6086524 0
-8.7902943 4.7380375 0
-11.35132 1.103813 0
10.806991 -5.4476055 0
-3.8769349 3.0833175 0
-10.667932 -3.6338601 0
-2.2642752 -3.1144384 0
0.47115582 14.494986 0
3.3724456 -12.746351 0
-5.5468846 -14.757732 0
1.7360419 4.9271501 0
-0.081488758 7.012473 0
-10.36384 -12.255587 0
-0.16328478 10.404225 0
0.88512496 2.3887227 0
-7.5950041 -7.747029 0
-7.3232218 -7.8912957 0
-9.3643317 -0.39852707 0
7.9071225 -13.585317 0
0.73910936 -12.657558 0
2.6745014 1.6164023 0
10.890095 -13.268644 0
8.0056659 -12.425309 0
1.1920122 10.308741 0
-1.4949239 0.73772324 0
-11.692778 0.30239773 0
-2.7899026 -3.7097328 0
4.9170704 -4.8364654 0
8.9353797 5.1771912 0
2.5229173 15.432509 0
10.753659 -2.412848 0
-7.4409433 -4.2947617 0
4.873636 1.5740408 0
3.4751368 -15.585895 0
-7.8197782 -9.5409333 0
0.5817386 2.2670685 0
4.1061832 -14.00663 0
-5.9163904 -11.872236 0
-14.887878 5.5954281 0
-3.788213 2.2023905 0
11.932874 7.6931887 0
6.1687362 -8.0150086 0
-12.406361 4.898113 0
-0.025809595 4.9462642 0
1.818856 -3.8957736 0
-10.210546 3.1769106 0
9.1259531 3.3291685 0
-6.6677866 -11.437038 0
0.18887428 9.0824097 0
-9.6269411 -4.5870006 0
-8.2394984 4.6814404 0
-9.3547163 0.64716096 0
-5.9422885 6.6322757 0
-9.211413 7.950883 0
8.8920436 -12.059224 0
-7.6097587 -0.052100084 0
2.7835568 9.3004618 0
-8.9918088 0.84948048 0
-6.6377144 -1.6098926 0
-7.1221683 -15.017829 0
-1.139574 7.9429532 0
2.8378588 -11.527672 0
3.1291017 -13.783045 0
-2.3350035 -15.453168 0
-0.97163984 1.9381481 0
-1.4490994 -1.719126 0
7.7540977 2.115199 0
-8.7626015 -0.24580116 0
-1.3336612 2.966431 0
-5.7322492 -3.7610305 0
-1.9264428 -3.5875868 0
6.9358878 -2.560367 0
-1.737634 -1.7741654 0
14.274964 2.771614 0
-8.4004868 -7.7124941 0
0.077142566 -6.0540397 0
3.647874 4.0289857 0
2.7412897 -0.78626709 0
-11.396479 10.045463 0
9.9402315 -1.5239118 0
0.1317334 10.692673 0
3.7265786 2.8018746 0
-9.0860458 7.1232155 0
7.9152498 -6.5258363 0
8.0998103 -1.6617564 0
3.108033 -7.0098809 0
-0.10091477 -6.7796794 0
-0.12292763 17.526001 0
-5.2628327 -16.367339 0
11.570692 -1.6790917 0
-10.197972 5.6474079 0
11.745414 -6.1868561 0
1.9431557 -2.5885994 0
4.3887464 2.2688536 0
-1.5432034 -4.4977047 0
6.7872236 6.6739643 0
14.736058 -8.4615511 0
7.3519626 -5.0101903 0
0.23995169 5.147359 0
10.377032 -14.157173 0
-0.28146344 15.000344 0
3.7886105 -3.0296187 0
-7.6484255 1.623629 0
3.7660462 -8.1651531 0
-9.113941 3.242246 0
3.4367149 5.3571889 0
-5.9237482 0.39178671 0
6.2747473 8.8217365 0
7.9532103 3.0333291 0
0.43718877 -3.1082049 0
-2.7887361 -0.47374865 0
-18.178709 -10.725065 0
-4.7546217 2.78292 0
-10.447187 -0.041826686 0
-1.6099733 -0.37769566 0
-2.5144632 0.57718801 0
-3.9454238 8.7533806 0
3.4490189 -2.4551474 0
-2.7917991 13.592599 0
15.383161 1.4140178 0
-11.242001 -1.7839595 0
-6.17494 -18.789228 0
9.0741517 9.4190636 0
14.47818 -6.7233637 0
-16.190324 -2.3933012 0
-8.2361848 -7.8979289 0
-0.50110903 -14.264013 0
-5.2676412 0.72324518 0
0.0036232368 -1.276423 0
3.3072391 4.59179 0
-10.366373 -1.8179276 0
-0.07227633 5.9749941 0
-8.2661395 0.27781264 0
-3.7097588 -5.3887836 0
-11.837151 1.5173236 0
-8.2510732 -6.3513492 0
-6.2012049 8.6489043 0
-16.783207 0.81252367 0
-2.3308734 1.5351569 0
2.6304015 -7.6053657 0
-11.005696 -0.55851104 0
4.1074462 2.509921 0
3.3534934 4.8780854 0
-11.336861 -12.033429 0
-8.2546355 -1.1362829 0
-5.9935165 -1.4067221 0
-2.357131 -5.7064681 0
-8.9008937 3.0359055 0
3.2063055 0.058542667 0
-1.7043134 0.39953305 0
-5.6519998 12.882248 0
-3.5977442 -3.6154562 0
5.904232 0.49412712 0
-8.6939472 1.7882224 0
2.6762043 0.18251369 0
-5.9737685 -0.13992676 0
-10.005628 5.3096119 0
-11.187157 3.1695048 0
-9.863607 -10.638452 0
-10.483675 0.20922892 0
-0.25614352 3.444571 0
8.0651404 -9.0214829 0
5.1567382 -1.6762168 0
-7.7862793 -3.8164743 0
1.7677265 0.14867441 0
-4.7701232 -11.493736 0
-9.112218 3.0422646 0
-8.5822323 3.88514 0
-8.5658927 3.8611352 0
-3.4546415 6.1675037 0
4.9652735 -3.9213461 0
4.739432 -5.2387259 0
-10.947611 1.6525273 0
-7.9323849 -3.1034028 0
5.2038229 -12.921835 0
5.2192106 11.31123 0
-4.5574911 0.65458747 0
3.5796357 0.22110097 0
8.1112061 13.392522 0
-9.9956934 -0.30884605 0
0.21485077 -6.9256712 0
-10.615746 1.8333183 0
-10.026366 9.1837375 0
0.82931028 -12.767712 0
-11.531283 -8.1674906 0
-7.375308 -0.7565795 0
-1.0775852 -4.1186884 0
-6.6658974 1.3771096 0
7.0300479 -5.4492074 0
-8.9055607 1.1113706 0
-14.242046 0.6737617 0
0.30295098 -3.9805023 0
-11.262349 0.59782679 0
-3.1269616 18.278909 0
-1.7063699 -2.2031634 0
-2.4468607 10.302452 0
2.6250003 0.013956598 0
-4.3553843 -1.1310422 0
-3.3617119 10.662628 0
5.4263745 3.907381 0
7.5441528 2.4929143 0
7.2915309 -2.3076454 0
-10.631094 -6.9729908 0
-11.255071 0.65139194 0
2.6121145 -5.3728299 0
-13.496641 7.517677 0
-12.560476 8.7719103 0
3.3785113 9.8877592 0
-10.089434 0.034195164 0
-0.053223806 -0.72708913 0
-9.7880207 -2.0208226 0
-9.9950588 0.059439454 0
-3.7646288 -6.1693332 0
-8.5084199 -2.8922753 0
-8.4936158 -2.8396784 0
14.254157 2.6678981 0
-8.4853812 -2.8354493 0
-8.4841348 -2.8343545 0
-8.4853192 -2.8352691 0
-8.4840791 -2.8361632 0
-8.4863871 -2.8309089 0
-8.4640325 -2.8524619 0
-8.4821939 -3.0948382 0
13.995266 1.8715905 0
0.77238932 -0.5390777 0
-0.85143889 -1.3302017 0
-13.533708 2.9211809 0
0.15435875 3.2529248 0
-4.868388 9.571518 0
-10.017684 -0.035120257 0
2.1168681 -0.23732014 0
-4.567202 9.5572255 0
-9.9053908 5.8347943 0
-10.000028 0.0089267852 0
-10.117251 0.38890641 0
4.5425342 4.832659 0
-8.6561193 -11.931846 0
-9.7655511 0.080471387 0
6.3691994 1.3006734 0
-10.13309 1.1054652 0
2.423209 -4.4934639 0
-6.4968668 -11.089648 0
2.3117982 -4.5257884 0
-1.6740584 -6.4938861 0
0.72289266 -2.1888721 0
-9.960718 0.63092822 0
3.7618939 -7.4788753 0
-0.45021699 6.8731934 0
6.2844118 -6.0007364 0
-2.7050009 -1.9270533 0
-2.9898244 -10.589883 0
-7.3497853 2.4307126 0
-7.9417966 2.0905917 0
-7.8762796 2.1287229 0
-7.8097696 2.1747728 0
-7.8242082 2.1712918 0
-2.3915129 10.506207 0
-2.0120094 6.6282712 0
-10.000006 0.009123356 0
-10.004771 0.014873374 0
-1.1057349 2.7842025 0
-11.901772 -8.8120548 0
-9.9956439 -0.0018818278 0
-4.4313377 11.417163 0
0.6767494 1.5976986 0
-9.6930613 0.51129754 0
-9.2985153 3.094744 0
-10.124062 -0.42670813 0
-10.630831 -2.8322009 0
-10.405891 -1.5106739 0
-9.9456592 -0.17980657 0
-9.9783166 -0.23153435 0
-9.9442883 -0.17296506 0
-9.3419475 1.4584363 0
-8.8435348 3.7259498 0
-9.898157 3.0040225 0
-4.8105395 -0.59327884 0
-8.1583609 12.391029 0
0.96459133 2.1141174 0
-10.188166 -1.3724188 0
-10.214047 -8.0448441 0
-4.2055934 9.4182922 0
0.26433598 2.8628494 0
-10.000004 0.0090901396 0
-10.000269 0.00037802659 0
1.2040326 -2.3470632 0
-10.020098 0.012523128 0
-10.019376 0.097356828 0
-10.533777 0.59289544 0
-10.956876 5.9260889 0
-10.950667 5.9638435 0
-10.950753 5.9632848 0
-10.950655 5.9638944 0
-10.950696 5.9636351 0
-10.950648 5.9639346 0
-10.950122 5.9672673 0
-10.960235 5.9036787 0
-10.915619 6.3230527 0
2.9952998 5.9417238 0
-1.0451628 -9.9760614 0
-0.28866866 -9.5793404 0
-0.33653538 -9.6131314 0
-0.4234778 -9.6630586 0
-0.42600556 -9.6630976 0
-2.4866087 5.6299803 0
4.0827717 11.9015 0
-10.001404 -0.0043756331 0
-10.119772 0.072123682 0
-9.9999978 0.0090805545 0
-10.000013 -5.2810561e-06 0
-10.000185 1.8218368e-06 0
-10.000077 6.0920065e-05 0
-10.04697 0.018124583 0
-10.003437 0.0022418703 0
1.7969138 10.91749 0
-9.9767983 -0.041983687 0
-9.9780991 -0.041042445 0
-9.9775138 -0.040723029 0
-9.9775114 -0.040718012 0
-9.9775137 -0.040719947 0
-9.9775004 -0.040727903 0
-9.9775612 -0.040558108 0
-8.1483067 -0.61913123 0
-9.6773967 -2.7319337 0
-9.9958657 -0.045191724 0
-10.019969 -0.0031342325 0
-10.019644 -0.0030131462 0
-10.01884 -0.0028567921 0
-10.018781 -0.0029204461 0
-10.001625 0.0031353076 0
-11.960166 -2.6507234 0
-9.9856249 -0.015962211 0
-10.000022 -0.0091336898 0
-9.9999972 0.009080091 0
-9.9999976 -1.7735732e-05 0
-9.9999974 -1.6773003e-07 0
-10 2.761012e-06 0
-10.000027 8.6989047e-06 0
-10.000049 3.1506443e-05 0
-10.00259 0.0019425279 0
6.8451543 2.6266757 0
6.8408755 2.5964651 0
6.8410055 2.5969968 0
6.8408733 2.5964304 0
6.8409297 2.5966714 0
6.8408643 2.5963928 0
6.8401422 2.5933094 0
6.8535895 2.652562 0
6.6912762 2.5252888 0
-10.013469 -0.012324646 0
-10.000042 -4.0815704e-05 0
-10.000031 8.075256e-07 0
-10.00003 2.4838717e-06 0
-9.9999954 0.00026977531 0
5.1122879 -11.147409 0
-10.002352 -0.00139364 0
-6.5106386 0.10290739 0
-10.000023 -0.0091686132 0
-9.9999726 0.0090800832 0
-9.9999942 -1.6498798e-05 0
-9.999994 8.2056539e-07 0
-9.999994 1.4633222e-06 0
-9.999994 1.4631374e-06 0
-9.9999956 2.8833164e-06 0
-10.000016 1.3238348e-05 0
-10.000161 1.0104756e-05 0
-10.000167 3.8088381e-06 0
-10.000167 3.7744415e-06 0
-10.000167 3.7733531e-06 0
-10.000167 4.2610882e-06 0
-10.000167 4.2607138e-06 0
-10.000166 4.221071e-06 0
-10.000178 3.0355628e-05 0
-10.013619 0.048601811 0
-10.000941 -0.0042086494 0
-9.999997 -8.4103999e-06 0
-9.9999927 2.4352591e-06 0
-9.9999931 3.2710622e-06 0
-10.000016 2.7705985e-05 0
-10.00039 -6.0257967e-05 0
-10.000024 -6.3042481e-06 0
-10.000027 1.6188941e-05 0
-9.9999957 -0.009079931 0
-9.9999401 0.0090800604 0
-9.9999913 -1.4526794e-05 0
-9.9999913 2.7657066e-06 0
-9.9999914 3.4085479e-06 0
-9.9999914 3.421194e-06 0
-9.9999919 2.4220186e-06 0
-9.9999917 3.1131513e-06 0
-9.9999918 3.6085759e-06 0
-9.9999921 3.4128607e-06 0
-9.9999921 3.4129946e-06 0
-9.9999921 3.412996e-06 0
-9.9999921 3.3952798e-06 0
-9.9999916 3.9153825e-06 0
-9.9999915 3.9051291e-06 0
-9.9999937 6.169274e-06 0
-10.00004 2.1351661e-05 0
-10.000019 -1.1440091e-05 0
-9.9999909 2.7804382e-06 0
-9.9999898 3.9023942e-06 0
-9.9999892 4.388179e-06 0
-9.9999895 5.3064259e-06 0
-9.9999903 4.7818602e-06 0
-9.9999891 5.2352147e-06 0
-9.9999883 2.2870583e-05 0
-9.9999883 -0.0090751831 0
-9.9999165 0.0090800497 0
-9.999988 -1.3002519e-05 0
-9.9999881 4.2360057e-06 0
-9.9999881 4.8791747e-06 0
-9.999988 4.8793487e-06 0
-9.9999879 4.8775359e-06 0
-9.9999873 4.8776554e-06 0
-9.9999873 5.365469e-06 0
-9.9999872 5.365508e-06 0
-9.9999872 5.3655682e-06 0
-9.9999872 5.3654667e-06 0
-9.9999871 5.2858458e-06 0
-9.9999763 1.3712883e-05 0
-9.9999762 1.3632331e-05 0
-9.9999763 1.3631389e-05 0
-9.9999763 1.3733042e-05 0
-9.9999756 1.4496015e-05 0
-9.9999751 1.4606508e-05 0
-9.9999751 1.4602799e-05 0
-9.9999751 1.4610992e-05 0
-9.9999751 1.4611755e-05 0
-9.9999751 1.4610759e-05 0
-9.999975 1.5244612e-05 0
-9.9999744 3.3098946e-05 0
-9.9999742 -0.0090649191 0
-9.9997479 0.00907995 0
-9.9999739 -2.5984314e-06 0
-9.9999735 1.4451966e-05 0
-9.9999735 1.5583055e-05 0
-9.9999724 1.6562518e-05 0
-9.9999724 1.6558723e-05 0
-9.9999724 1.6558799e-05 0
-9.9999724 1.6553993e-05 0
-9.9999718 1.7050051e-05 0
-9.9999713 1.704436e-05 0
-9.9999713 1.7532148e-05 0
-9.9999712 1.7534167e-05 0
-9.9999713 1.7545437e-05 0
-9.9999708 1.7538254e-05 0
-9.9999709 1.8022636e-05 0
-9.9999702 1.851897e-05 0
-9.9999702 1.8514039e-05 0
-9.9999701 1.8514148e-05 0
-9.9999701 1.8459059e-05 0
-9.9999645 2.3918325e-05 0
-9.9999644 2.3862376e-05 0
-9.9999638 2.3857587e-05 0
-9.9999638 2.4994977e-05 0
-9.9999637 4.233896e-05 0
-9.999963 -0.0090551424 0
-9.9995899 0.0090798774 0
-9.999962 7.2389526e-06 0
-9.9999619 2.4185962e-05 0
-9.9999619 2.5324933e-05 0
-9.9999614 2.5796406e-05 0
-9.9999602 2.679154e-05 0
-9.9999601 2.6780339e-05 0
-9.9999601 2.6781041e-05 0
-9.9999602 2.6781929e-05 0
-9.9999601 2.6784357e-05 0
-9.9999595 2.6780475e-05 0
-9.9999595 2.727604e-05 0
-9.999959 2.7270812e-05 0
-9.999959 2.7752872e-05 0
-9.9999579 2.8728021e-05 0
-9.9999574 2.9228086e-05 0
-9.9999573 2.9216999e-05 0
-9.9999555 2.9704128e-05 0
-9.9999555 3.068053e-05 0
-9.9999557 3.0684207e-05 0
-9.9999556 3.0680611e-05 0
-9.9999557 3.0680473e-05 0
-9.9999556 3.1328128e-05 0
-9.9999556 4.8678647e-05 0
-9.9999555 -0.0090492741 0
-9.999485 0.0090820044 0
-9.9999464 6.4891108e-06 0
-9.9999449 2.4700145e-05 0
-9.9999443 2.5830129e-05 0
-9.9999438 2.5819513e-05 0
-9.9999423 2.6785771e-05 0
-9.9999417 2.8263916e-05 0
-9.9999327 2.8752172e-05 0
-9.9999319 2.9219302e-05 0
-9.9999307 3.0211986e-05 0
-9.9999302 3.1174736e-05 0
-9.9999301 3.1172202e-05 0
-9.9999296 3.116943e-05 0
-9.9999296 3.1651086e-05 0
-9.999929 3.2156935e-05 0
-9.9999285 3.2140423e-05 0
-9.9999279 3.2636212e-05 0
-9.9999279 3.3122332e-05 0
-9.9999279 3.3120022e-05 0
-9.9999195 3.3112539e-05 0
-9.9999189 3.4095409e-05 0
-9.9999103 3.4575687e-05 0
-9.9999105 3.5214718e-05 0
-9.9999108 5.2334057e-05 0
-9.9999166 -0.0090475141 0
-10.008007 0.0085780165 0
-10.009009 2.3403475e-05 0
-10.009008 3.4104611e-05 0
-10.009007 3.523921e-05 0
-10.009006 3.6219416e-05 0
-10.009006 3.6705993e-05 0
-10.009006 3.6715648e-05 0
-10.009006 3.670676e-05 0
-10.009022 3.6224821e-05 0
-10.009022 3.6224696e-05 0
-10.009021 3.5721084e-05 0
-10.009013 3.6717395e-05 0
-10.009012 3.7193722e-05 0
-10.009012 3.8188123e-05 0
-10.009011 3.8181851e-05 0
-10.009011 3.867417e-05 0
-10.00901 3.9162041e-05 0
-10.00901 3.9660177e-05 0
-10.00901 3.9658222e-05 0
-10.00901 3.9648006e-05 0
-10.009009 4.0651543e-05 0
-10.009009 4.0628875e-05 0
-10.009 4.174406e-05 0
-10.009002 5.3306867e-05 0
-10.008499 -0.0085378016 0
9.3664143 -3.8409605 0
-10.05924 -2.612634 0
4.5148317 -8.6359537 0
6.9893245 -11.315367 0
-8.2176707 7.7716233 0
3.2413684 1.3918521 0
0.13304558 -6.8458334 0
3.9441529 2.4020401 0
0.21383393 4.4720621 0
-3.0702843 4.4223474 0
7.5313757 -13.092639 0
6.664173 -0.44818538 0
-10.150311 -4.5952595 0
1.1461681 -3.5164318 0
-2.8681298 -5.2122211 0
-2.6424557 -5.1557421 0
-7.2295581 -0.16227509 0
-20.660616 12.197261 0
6.7273006 12.245232 0
-1.2908033 12.1239 0
22.168388 -4.8056082 0
1.9432465 3.9968135 0
8.141498 4.3889208 0
-2.6283439 22.954813 0
-9.4775443 5.5652418 0
-6.2575835 -4.2536543 0
2.9215952 -4.6027309 0
5.4610854 -0.70295026 0
-6.0127113 -8.6766598 0
9.4987881 -7.9626848 0
0.75317244 -7.7510262 0
7.4350119 -3.8869635 0
-7.191349 -4.5870813 0
-0.84537827 5.5198288 0
-10.853473 10.08295 0
-3.4918937 5.4150809 0
-0.51352662 -8.5176367 0
-0.053716422 -0.4463966 0
-9.0259458 -2.6915061 0
7.549122 11.862566 0
3.1398595 4.1139617 0
11.574705 4.6644213 0
-4.2754198 -5.5545913 0
-6.9556809 2.6275045 0
-1.3573662 11.992289 0
9.8332397 -1.2735714 0
-5.6866279 6.9125694 0
6.238847 0.23751899 0
-1.1042962 -6.145512 0
-0.12127355 9.3399699 0
8.2360975 -6.0207896 0
1.8579909 1.7470451 0
-9.816879 -11.351539 0
-6.5022276 -6.4595574 0
4.9121447 9.5857148 0
16.170796 6.9109192 0
-9.7173645 -11.39142 0
-5.2965391 -1.0322129 0
-7.6591601 7.4765191 0
15.213869 -3.6998849 0
1.428516 8.9460077 0
6.0894275 -1.0864656 0
-3.7833619 -0.82597002 0
-1.9729553 3.2079497 0
13.590176 -11.097893 0
8.0495701 1.1025762 0
3.8888222 7.5268814 0
1.7277815 -11.678864 0
-3.3935041 -1.1005745 0
-6.5848889 9.017891 0
-4.8760656 2.3274062 0
4.9454337 10.167549 0
5.7245362 3.7488236 0
4.4613167 -1.0698985 0
11.8403 2.3347111 0
-6.5485092 -6.7367906 0
-1.977746 -10.564179 0
-11.200873 -4.8517549 0
-2.3115553 -0.63313656 0
-3.142224 2.397195 0
6.0031164 5.0620451 0
-2.3269696 -7.1890389 0
7.5762482 -0.088728079 0
0.63156561 4.6168244 0
-7.6018841 1.1512959 0
-2.304478 -7.0481255 0
0.66665732 0.28151211 0
11.575943 2.8524332 0
-1.1253386 7.1009409 0
3.0725279 22.417942 0
6.1836419 2.8296974 0
4.5774067 -14.221571 0
-7.2124383 -3.2707559 0
-7.4842656 12.165435 0
-10.465668 -4.548155 0