# vtk DataFile Version 4.0
hesp visualization file
ASCII
DATASET UNSTRUCTURED_GRID
POINTS 1250 double
27.795807 -1.544316 4
28.945995 -0.84680403 4
31.661158 3.3100181 4
28.183279 8.4631971 4
30.251053 4.0210692 4
33.559207 6.6874412 4
34.394967 1.3042265 4
34.513577 10.776808 4
31.012935 9.5690334 4
27.662978 8.8130984 4
34.49586 11.27185 4
28.428893 12.604451 4
30.582295 13.472961 4
33.131062 13.518396 4
27.761097 18.252807 4
33.610715 15.471965 4
27.364292 23.190523 4
30.680291 22.906866 4
29.303828 21.33244 4
30.676723 25.357394 4
29.512985 23.285648 4
32.859748 24.839709 4
30.640971 23.500382 4
30.663143 34.251917 4
29.905947 32.371359 4
37.84919 -6.1318178 4
28.491864 1.7910173 4
28.093649 -2.9637462 4
28.570671 5.1200582 4
29.456685 4.6652151 4
29.706938 3.7736748 4
28.477506 2.2056804 4
26.752141 6.3356014 4
30.080701 7.2980901 4
26.722904 9.1304494 4
29.685555 11.313756 4
30.106443 10.211402 4
28.966069 16.222838 4
26.259685 13.674331 4
32.529381 13.630988 4
28.601405 22.557698 4
28.395099 16.003823 4
26.804319 19.947288 4
32.664012 19.181125 4
32.688392 21.068209 4
31.139396 28.22939 4
31.770595 21.405334 4
27.190938 29.613146 4
29.626991 34.462585 4
32.298835 29.803402 4
26.593988 0.31820193 4
29.663116 -5.0778385 4
30.667203 1.4645104 4
32.795183 6.0948865 4
32.410196 -0.54172163 4
34.005928 3.2441515 4
30.769737 1.9136659 4
30.961455 9.1151596 4
31.249809 10.256736 4
34.18803 11.543054 4
31.693798 10.1922 4
29.927004 10.821864 4
31.790212 11.579502 4
33.070116 11.11432 4
32.263075 11.752222 4
31.737015 13.715394 4
29.302347 17.487579 4
33.818325 19.027383 4
30.869704 16.129044 4
28.774923 24.962284 4
27.616709 18.927259 4
33.425203 21.727683 4
29.769138 21.182058 4
32.890706 28.778162 4
31.338522 26.510939 4
36.01635 -9.7966714 4
31.786662 -1.0355462 4
32.258851 5.5131138 4
32.477272 -0.22793428 4
27.242715 6.8453719 4
30.658252 9.0640819 4
28.459056 9.7524801 4
31.22821 11.644853 4
28.320063 11.158979 4
33.59191 11.996383 4
29.614612 15.239043 4
32.501241 10.168791 4
30.114418 15.033479 4
30.709376 18.780552 4
31.632602 15.267232 4
32.11134 15.406832 4
28.646634 17.870007 4
33.569427 15.146122 4
30.843382 19.107537 4
31.891655 19.602382 4
34.206837 18.568117 4
31.483779 22.027152 4
29.222859 24.0388 4
29.033251 25.921611 4
32.368267 38.39008 4
33.818554 -5.23357 4
30.256406 -4.3983141 4
36.059637 4.130473 4
33.714186 7.225652 4
28.060834 0.040970229 4
32.640867 8.5693345 4
32.71971 5.6690851 4
31.235828 5.231396 4
31.891696 7.0030005 4
32.194554 8.3836299 4
33.422851 7.8389738 4
32.938166 9.0911408 4
34.825343 11.73565 4
34.0915 11.297029 4
33.423323 13.860325 4
34.41591 17.551303 4
33.121138 17.234177 4
31.722692 19.943975 4
30.23768 18.316543 4
35.850336 19.468351 4
33.902566 24.069521 4
32.259878 21.345933 4
36.148301 22.389558 4
33.609431 25.86294 4
31.7077 27.768819 4
29.338676 -4.6902909 4
27.777744 0.00046469812 4
34.537332 6.8252092 4
36.180456 6.8889043 4
33.956525 4.3589752 4
31.21705 9.7363733 4
34.129973 9.6963182 4
35.773551 10.102899 4
34.858707 11.399613 4
33.779055 14.956517 4
34.686208 15.694721 4
36.015139 14.883442 4
32.920655 17.614799 4
36.733745 17.328448 4
31.043107 17.060959 4
33.046863 22.847774 4
33.613385 19.852283 4
33.759301 22.212983 4
34.158055 23.454802 4
34.595981 25.477384 4
31.621333 28.436637 4
31.990875 22.086843 4
32.020419 27.803652 4
34.604055 32.111774 4
26.588364 28.937797 4
32.23868 4.253896 4
29.224245 -6.655343 4
36.433273 5.9652601 4
32.477801 1.6454152 4
31.14557 3.7104146 4
28.675257 5.6854224 4
31.805218 7.5712746 4
31.9408 10.049336 4
31.294544 12.001901 4
29.34956 10.154228 4
32.631645 12.996735 4
29.60878 13.127424 4
30.739721 13.774191 4
34.06694 15.837458 4
30.308575 14.519614 4
31.093407 17.373006 4
30.212311 16.618111 4
31.663511 20.220071 4
32.416017 24.242746 4
30.912954 21.599626 4
30.962107 24.134645 4
34.620976 24.726911 4
33.084508 26.555393 4
34.947645 23.938238 4
29.184189 31.153792 4
40.561923 -3.5483281 4
32.194254 2.45091 4
32.514371 0.67164375 4
35.994511 4.9628116 4
33.215554 10.286923 4
30.342151 1.239629 4
32.666825 7.7109639 4
28.845399 8.8645394 4
35.596641 8.4351027 4
37.037248 9.3721663 4
33.041292 12.949686 4
32.338296 13.182196 4
33.152803 16.492558 4
32.788287 13.860293 4
36.775568 14.667028 4
33.280128 19.636864 4
35.438268 17.454944 4
32.472223 23.97307 4
32.967849 21.526496 4
30.396364 23.034285 4
31.504995 22.489561 4
29.760062 27.094513 4
35.441357 27.471781 4
31.143343 27.619344 4
39.245176 33.951078 4
33.497655 2.2061703 4
33.125517 2.2463961 4
34.016429 1.258987 4
30.258533 0.45916148 4
33.680869 4.2641111 4
33.149776 2.6774166 4
33.961251 7.8040756 4
34.274053 10.45501 4
33.239865 12.691176 4
35.490777 12.267486 4
33.445933 16.270469 4
34.410439 15.299972 4
31.856423 15.757073 4
32.927623 15.030055 4
35.607192 17.987811 4
36.414804 18.740994 4
30.438996 15.786057 4
31.150499 15.452598 4
31.620101 16.176356 4
34.801167 19.384188 4
35.03019 24.196857 4
34.997176 26.653069 4
35.518644 23.985901 4
35.485394 28.102271 4
33.409912 27.266967 4
32.12792 -0.79895981 4
29.112472 2.0968204 4
34.361025 1.9908856 4
34.833276 8.2782466 4
32.414671 6.5708302 4
34.88431 7.559218 4
36.247103 6.2248255 4
34.703571 9.1377609 4
35.464737 11.557266 4
36.642523 13.179689 4
34.785408 12.293889 4
33.417164 14.152252 4
34.756176 16.529728 4
35.408598 15.647922 4
33.489973 18.151553 4
37.458886 20.116496 4
36.817482 20.737514 4
36.169461 23.648414 4
35.302382 21.347953 4
37.763148 24.288221 4
33.526724 25.606345 4
35.378172 26.492296 4
34.174407 27.712382 4
32.723524 29.124118 4
29.863125 28.815228 4
31.106885 -2.0413484 4
32.518974 2.0760317 4
32.763177 2.9420578 4
35.08465 1.843755 4
37.932318 4.8083923 4
34.863384 4.1296594 4
36.949413 6.7111548 4
35.23587 7.1811585 4
34.50113 9.7757561 4
35.4979 9.8758134 4
34.995669 12.541595 4
36.129325 13.848427 4
37.759383 12.045619 4
37.726644 12.999129 4
34.336325 16.278018 4
33.39205 16.783527 4
35.465064 16.510854 4
34.438044 19.445706 4
34.086298 19.851969 4
35.229289 20.580135 4
37.885849 26.813189 4
33.481598 23.175027 4
33.066781 24.480267 4
34.366397 28.072829 4
31.141789 31.398799 4
37.687285 -5.2620685 4
32.238241 1.2374156 4
33.010899 3.3048381 4
37.771518 6.0110748 4
33.097985 6.7116977 4
37.968315 6.258827 4
33.875591 8.180853 4
32.335606 9.7568209 4
34.830953 10.079399 4
32.767199 10.156224 4
34.320083 14.76576 4
34.801456 13.530116 4
34.585143 16.015561 4
35.810276 14.094146 4
35.963294 17.994899 4
36.359931 20.731965 4
35.677656 20.059239 4
36.677332 21.230404 4
35.737785 22.439733 4
32.771037 20.724765 4
33.610909 23.640811 4
35.196977 24.552961 4
31.546848 27.37094 4
34.930672 29.662945 4
38.522912 32.68158 4
34.119422 0.53287484 4
36.033903 2.8166803 4
34.596597 2.7225665 4
33.379785 4.5690579 4
37.699809 5.0650507 4
36.938577 7.0580312 4
37.010156 8.2964106 4
39.672744 9.9714124 4
37.194497 10.683205 4
36.939368 11.572712 4
36.939377 12.698046 4
36.939335 13.814018 4
36.936983 14.936727 4
36.9443 16.054991 4
36.942702 17.139303 4
42.604412 18.605436 4
37.367431 21.187488 4
37.019732 22.077749 4
35.031298 23.502034 4
37.213504 24.640581 4
36.321527 27.172567 4
35.897856 26.899197 4
38.721199 26.017113 4
36.349797 30.550671 4
33.409974 29.319553 4
34.525229 1.113801 4
34.460438 2.3147717 4
37.058416 4.0637439 4
36.022297 2.3578988 4
34.554112 5.5953064 4
38.437364 7.1281567 4
35.386855 7.9334138 4
37.315596 9.2707141 4
37.216456 8.6302032 4
37.056888 9.9597096 4
36.312323 10.97704 4
35.130085 13.127464 4
35.431454 14.736098 4
36.954107 14.40846 4
36.499772 17.873069 4
37.634861 16.770932 4
37.452242 18.321047 4
37.9608 16.915614 4
37.376223 19.651472 4
37.289166 20.721575 4
37.361652 21.95896 4
37.257062 23.132324 4
37.541815 24.081153 4
38.754468 27.970924 4
35.453461 28.752433 4
35.636931 1.1280725 4
35.979133 1.8238199 4
36.861648 3.6702628 4
37.299877 2.5562412 4
35.652171 5.6393033 4
37.428332 7.6934186 4
37.182302 7.7146869 4
36.154751 8.8980846 4
35.755144 10.566244 4
36.941424 10.964572 4
35.556596 11.933317 4
35.874788 12.888606 4
35.983123 14.291103 4
35.725079 15.64293 4
35.669461 16.806184 4
35.777839 18.268009 4
36.031997 20.018291 4
35.661493 20.655776 4
36.355778 21.677698 4
36.501298 24.3438 4
37.482423 23.803337 4
36.553313 25.359408 4
35.66599 23.705071 4
36.577321 28.452898 4
37.563666 28.638189 4
36.75939 1.1280314 4
36.759576 2.2462124 4
37.965576 2.9850818 4
36.763957 4.3164483 4
37.370073 5.4297263 4
37.884207 7.7973488 4
38.696462 9.6003091 4
38.694035 10.734503 4
38.694133 11.857358 4
38.694142 12.979894 4
38.69414 14.102324 4
38.694146 15.224824 4
38.6955 16.350461 4
38.691602 17.460304 4
38.700514 18.644332 4
39.117344 18.644614 4
38.260024 17.877663 4
38.372798 19.054394 4
38.368244 20.173488 4
38.358926 21.292753 4
38.358717 22.415563 4
38.330994 25.990674 4
38.495488 26.92706 4
36.758417 26.93782 4
36.752269 28.038759 4
37.881856 1.1280264 4
37.881816 2.2449981 4
37.963715 3.4769716 4
37.880351 4.4904846 4
38.267027 5.6677798 4
38.062518 6.8289477 4
39.677062 9.53253 4
37.884369 8.974116 4
37.882108 10.108702 4
37.884265 11.219052 4
37.883032 12.340801 4
37.883909 13.463661 4
37.884281 14.586435 4
37.884282 15.708948 4
39.684835 16.277881 4
37.926487 17.417128 4
37.881651 19.078423 4
37.875042 20.203084 4
37.87095 21.321216 4
37.871159 22.443808 4
37.87501 23.566839 4
38.383836 24.841484 4
38.602755 24.499203 4
37.904741 27.273005 4
37.881768 28.056043 4
39.004319 1.1280256 4
39.004317 2.2449335 4
39.004314 3.3673858 4
39.004314 4.4898506 4
39.00426 5.612314 4
39.004285 6.7347823 4
39.00393 7.8576414 4
40.373108 9.6115741 4
40.368545 10.740901 4
40.368692 11.863378 4
40.368583 12.985909 4
40.368651 14.108384 4
40.369004 15.231633 4
40.362066 16.340459 4
40.381306 17.458469 4
40.406581 18.635758 4
39.786625 19.843525 4
39.004312 20.204228 4
39.004264 21.326783 4
39.004265 22.449246 4
39.004367 23.571804 4
40.887548 23.573648 4
39.003219 25.816757 4
39.915052 26.841086 4
39.103542 28.160361 4
40.126792 1.1280256 4
40.126782 2.2449334 4
[...]
POINT_DATA 1250
SCALARS m double
LOOKUP_TABLE default
1
1
1
1
1
1
1
1
1
1
1
1
1
1
1
1
1
1
1
1
1
1
1
1
1
1
1
1
1
1
1
1
1
1
1
1
1
1
1
1
1
1
1
1
1
1
1
1
1
1
1
1
1
1
1
1
1
1
1
1
1
1
1
1
1
1
1
1
1
1
1
1
1
1
1
1
1
1
1
1
1
1
1
1
1
1
1
1
1
1
1
1
1
1
1
1
1
1
1
1
1
1
1
1
1
1
1
1
1
1
1
1
1
1
1
1
1
1
1
1
1
1
1
1
1
1
1
1
1
1
1
1
1
1
1
1
1
1
1
1
1
1
1
1
1
1
1
1
1
1
1
1
1
1
1
1
1
1
1
1
1
1
1
1
1
1
1
1
1
1
1
1
1
1
1
1
1
1
1
1
1
1
1
1
1
1
1
1
1
1
1
1
1
1
1
1
1
1
1
1
1
1
1
1
1
1
1
1
1
1
1
1
1
1
1
1
1
1
1
1
1
1
1
1
1
1
1
1
1
1
1
1
1
1
1
1
1
1
1
1
1
1
1
1
1
1
1
1
1
1
1
1
1
1
1
1
1
1
1
1
1
1
1
1
1
1
1
1
1
1
1
1
1
1
1
1
1
1
1
1
1
1
1
1
1
1
1
1
1
1
1
1
1
1
1
1
1
1
1
1
1
1
1
1
1
1
1
1
1
1
1
1
1
1
1
1
1
1
1
1
1
1
1
1
1
1
1
1
1
1
1
1
1
1
1
1
1
1
1
1
1
1
1
1
1
1
1
1
1
1
1
1
1
1
1
1
1
1
1
1
1
1
1
1
1
1
1
1
1
1
1
1
1
1
1
1
1
1
1
1
1
1
1
1
1
1
1
1
1
1
1
1
1
1
1
1
1
1
1
1
1
1
1
1
1
1
1
1
1
1
1
1
1
1
1
1
1
1
1
1
1
1
1
1
1
1
1
1
1
1
1
1
1
1
1
1
1
1
1
1
1
1
1
1
1
1
1
1
1
1
1
1
1
1
1
1
1
1
1
1
1
1
1
1
1
1
1
1
1
1
1
1
1
1
1
1
1
1
1
1
1
1
1
1
1
1
1
1
1
1
1
1
1
1
1
1
1
1
1
1
1
1
1
1
1
1
1
1
1
1
1
1
1
1
1
1
1
1
1
1
1
1
1
1
1
1
1
1
1
1
1
1
1
1
1
1
1
1
1
1
1
1
1
1
1
1
1
1
1
1
1
1
1
1
1
1
1
1
1
1
1
1
1
1
1
1
1
1
1
1
1
1
1
1
1
1
1
1
1
1
1
1
1
1
1
1
1
1
1
1
1
1
1
1
1
1
1
1
1
1
1
1
1
1
1
1
1
1
1
1
1
1
1
1
1
1
1
1
1
1
1
1
1
1
1
1
1
1
1
1
1
1
1
1
1
1
1
1
1
1
1
1
1
1
1
1
1
1
1
1
1
1
1
1
1
1
1
1
1
1
1
1
1
1
1
1
1
1
1
1
1
1
1
1
1
1
1
1
1
1
1
1
1
1
1
1
1
1
1
1
1
1
1
1
1
1
1
1
1
1
1
1
1
1
1
1
1
1
1
1
1
1
1
1
1
1
1
1
1
1
1
1
1
1
1
1
1
1
1
1
1
1
1
1
1
1
1
1
1
1
1
1
1
1
1
1
1
1
1
1
1
1
1
1
1
1
1
1
1
1
1
1
1
1
1
1
1
1
1
1
1
1
1
1
1
1
1
1
1
1
1
1
1
1
1
1
1
1
1
1
1
1
1
1
1
1
1
1
1
1
1
1
1
1
1
1
1
1
1
1
1
1
1
1
1
1
1
1
1
1
1
1
1
1
1
1
1
1
1
1
1
1
1
1
1
1
1
1
1
1
1
1
1
1
1
1
1
1
1
1
1
1
1
1
1
1
1
1
1
1
1
1
1
1
1
1
1
1
1
1
1
1
1
1
1
1
1
1
1
1
1
1
1
1
1
1
1
1
1
1
1
1
1
1
1
1
1
1
1
1
1
1
1
1
1
1
1
1
1
1
1
1
1
1
1
1
1
1
1
1
1
1
1
1
1
1
1
1
1
1
1
1
1
1
1
1
1
1
1
1
1
1
1
1
1
1
1
1
1
1
1
1
1
1
1
1
1
1
1
1
1
1
1
1
1
1
1
1
1
1
1
1
1
1
1
1
1
1
1
1
1
1
1
1
1
1
1
1
1
1
1
1
1
1
1
1
1
1
1
1
1
1
1
1
1
1
1
1
1
1
1
1
1
1
1
1
1
1
1
1
1
1
1
1
1
1
1
1
1
1
1
1
1
1
1
1
1
1
1
1
1
1
1
1
1
1
1
1
1
1
1
1
1
1
1
1
1
1
1
1
1
1
1
1
1
1
1
1
1
1
1
1
1
1
1
1
1
1
1
1
1
1
1
1
1
1
1
1
1
1
1
1
1
1
1
1
1
1
1
1
1
1
1
1
1
1
1
1
1
1
1
1
1
1
1
1
1
1
1
1
1
1
1
1
1
1
1
1
1
1
1
1
1
1
1
1
1
1
1
1
1
1
1
1
1
1
1
1
1
1
1
1
1
1
1
1
1
1
1
1
1
1
1
1
1
1
1
1
1
1
1
1
1
1
1
1
1
1
1
1
1
1
1
1
1
1
1
1
1
1
1
1
1
1
1
1
1
1
1
1
1
1
1
1
1
1
1
1
1
1
1
1
1
1
1
1
1
1
1
1
1
1
1
1
1
1
1
1
1
1
1
1
1
1
1
1
1
1
1
1
1
1
1
1
1
1
1
1
1
1
VECTORS v double
-1.8441644 -6.980224 0
-4.5256501 -4.8314658 0
-3.8185514 -10.261516 0
-0.96941615 -13.796071 0
-7.3591235 5.2658149 0
9.7941566 -1.8330817 0
-0.60906927 -0.33796196 0
15.340839 3.6455471 0
-11.443802 2.7155831 0
7.8484506 3.0926237 0
7.7771466 -2.7849452 0
-8.231065 -20.325467 0
-18.687085 3.6119331 0
-1.8764183 -3.2296654 0
-7.5291931 7.5135464 0
-2.2578724 4.9105792 0
5.9171599 -4.6615015 0
18.174532 -9.5318857 0
-2.4460437 -4.9828448 0
0.12377338 12.37584 0
-10.995133 -5.9152811 0
0.56246722 9.5758498 0
4.8289558 -3.9258832 0
0.20992697 22.962543 0
1.6783066 10.714895 0
8.8420958 -9.0856165 0
-12.276333 -4.1413804 0
-4.8815134 -9.0169843 0
7.6501848 1.8638984 0
-2.8630548 3.8463666 0
-3.3608517 -1.8576094 0
9.9340757 -13.245465 0
-4.8154561 -8.4185779 0
2.0913873 -4.29702 0
-13.777425 -7.150485 0
2.4449824 -18.787619 0
10.632983 6.030207 0
-6.2889956 6.9008292 0
22.820697 15.43199 0
6.5287086 4.2029169 0
-3.9557803 5.3830476 0
-3.2765526 -11.871737 0
-4.2554494 2.1608859 0
-9.52551 -20.115982 0
-0.56241449 3.1904935 0
-8.4590689 4.7068441 0
-5.9001402 -4.7173805 0
-2.3295337 2.5202178 0
1.4687733 13.663481 0
-7.0648405 8.5016267 0
5.5489872 -11.109998 0
3.1200558 -15.925654 0
-5.6424611 -7.850027 0
-1.9436113 3.5426641 0
10.934264 -11.348878 0
-7.5696651 1.0690279 0
-11.209947 -4.6258927 0
2.7571886 4.0895545 0
6.7064984 6.5834593 0
-5.6864021 -18.351315 0
-10.553183 -11.613029 0
-3.038224 -0.32886591 0
5.5549389 3.7896189 0
-0.72879046 0.70268288 0
-2.4610802 2.727553 0
2.2355406 -6.0233167 0
-2.4294567 -2.1147103 0
2.7803136 11.240723 0
15.478307 -1.2046782 0
-6.1983362 4.391656 0
2.1662833 2.9664229 0
6.4649233 0.45596259 0
2.4351704 -9.7728076 0
6.5798204 5.8743153 0
-2.1336398 -0.80407212 0
3.9466542 -13.879275 0
-3.7982189 -5.3485506 0
-0.94822071 -0.82772583 0
3.5223466 -13.129652 0
0.72768435 -11.064909 0
-4.5990052 6.8408282 0
-8.4520359 -1.7517956 0
7.844945 10.660483 0
0.62643559 -0.9277888 0
-2.4955063 -4.5508099 0
-0.61329284 -1.1551414 0
-3.4975628 -10.473157 0
-3.220132 -5.0046594 0
8.9691868 -7.9652772 0
2.8809721 -0.67154479 0
5.3841394 -2.8845241 0
12.568003 -9.1179607 0
3.0608138 -6.35329 0
-9.1281432 -5.7293403 0
-11.201957 0.57585937 0
3.0882238 -8.2286982 0
-4.0995246 4.1244069 0
6.4439718 9.064571 0
-2.118379 -3.169908 0
0.47115582 14.494986 0
3.3724412 -12.746345 0
-5.5315029 -14.760398 0
1.7428832 4.9286837 0
-2.6344124 6.7740606 0
-8.3143145 -11.889332 0
-13.964715 -0.94446952 0
5.9463397 2.8375991 0
-7.4319832 -7.9154992 0
15.313615 -8.6840589 0
6.5127637 -7.9095258 0
12.716471 -2.327313 0
-10.769316 5.9699907 0
-3.6415933 7.03828 0
9.5102944 0.19416429 0
-1.2473495 -1.8768759 0
17.873719 1.621996 0
1.2877887 8.9431743 0
-10.522125 -2.1276797 0
3.146528 7.486172 0
4.701794 -4.7656772 0
1.3936952 12.218752 0
3.0888408 15.291677 0
8.7015748 1.7471646 0
-6.377178 -0.85198145 0
4.5093616 1.6939381 0
-2.3994583 -8.9758256 0
-9.8635808 -9.8708308 0
3.0738019 2.4786345 0
3.2948516 -7.4731887 0
1.0238804 -7.6148893 0
-10.086183 8.9815427 0
-0.29014839 2.3664388 0
-6.3196303 12.826432 0
-3.2475999 -3.1252274 0
4.9257881 11.332699 0
1.011169 3.143288 0
10.888687 5.2512571 0
-9.9588878 3.0142467 0
8.9097194 3.5134683 0
-5.0621089 -15.49431 0
-8.1628064 5.0861586 0
7.4197441 -4.6603383 0
-2.9292647 -6.1649215 0
2.1367461 8.555147 0
-5.9217576 6.6083577 0
4.8478772 11.841405 0
1.1935669 -0.30218488 0
-7.7275349 -0.041177089 0
2.7835569 9.3004599 0
-9.1148041 1.0063678 0
-0.499035 12.794422 0
-7.1221743 -15.017655 0
-11.376973 5.1916103 0
-0.31620383 -3.9094356 0
3.1172906 -13.800619 0
2.4096239 1.7288601 0
-0.75451717 -0.60169044 0
2.2320703 -5.3966809 0
7.7478215 2.0054532 0
0.26721189 -5.1121404 0
-7.2234076 4.3244201 0
-5.350645 3.3761288 0
0.29891663 -6.4152777 0
5.7742114 10.836716 0
-1.6952091 -1.8542263 0
13.745182 -6.2745161 0
-0.49257269 8.9331475 0
0.47008681 5.4531796 0
-8.750123 7.3816926 0
4.2147259 -0.92155356 0
7.3995292 -1.8638503 0
9.9434371 -1.5244429 0
0.13700663 10.690961 0
2.9419934 0.96502661 0
-9.1875988 6.9920974 0
7.9152496 -6.5258364 0
-12.414512 -5.1417029 0
2.1171757 -16.803132 0
-0.43043249 -7.1899319 0
-11.742753 8.9617971 0
-4.9204793 -16.422566 0
-4.4616082 -3.9870188 0
-9.9233201 -12.518584 0
11.694249 -6.1046298 0
1.251816 -2.2776406 0
-4.7414786 -2.4449047 0
-3.2561452 -3.5887376 0
3.7457955 -1.4034679 0
-0.56813377 -14.596657 0
7.2749514 -5.0338997 0
1.9449881 7.2777554 0
9.6149356 -14.528769 0
-11.088105 11.028237 0
10.874877 -0.95348275 0
-8.300634 -1.0071959 0
3.6531809 -8.270603 0
-9.1651901 3.2084603 0
3.4838588 5.3530047 0
-0.30696423 11.600181 0
6.2746947 8.8216153 0
-3.9019904 10.395605 0
-8.3248043 -3.5945438 0
0.025162043 0.26640063 0
6.3475098 -18.452815 0
-11.502317 -2.762727 0
4.3299967 0.057683821 0
-0.92116906 -3.7386288 0
5.5393513 9.1253549 0
10.828277 -10.854716 0
4.0581505 -1.9341115 0
-7.9511608 15.299093 0
13.505063 12.214581 0
-10.972988 2.9760343 0
-5.5808185 -18.855371 0
-3.293372 7.3318371 0
14.45124 -6.7263307 0
5.701295 -13.759386 0
-8.1184361 -8.0831464 0
-0.49951136 -14.268388 0
7.2467804 8.0050664 0
-13.544803 8.074467 0
3.2683902 4.5892008 0
-2.6426985 -3.2177642 0
-0.1946759 6.1291525 0
-8.262195 0.27870307 0
2.2614044 -1.1209212 0
-10.154711 1.607939 0
2.5489743 -6.3707311 0
-6.4102363 8.3943518 0
2.7844264 -5.3598833 0
-1.8957902 1.77676 0
3.819318 -15.054449 0
9.3891873 6.50074 0
-9.4837974 3.9900334 0
3.2814773 4.9409482 0
2.279054 -1.469731 0
-5.0719834 19.269972 0
-6.1134414 -1.6435465 0
-10.668689 -4.489724 0
-5.9564263 -4.3680913 0
1.1619928 5.6272601 0
2.2471103 -3.3092645 0
-5.665064 12.89043 0
-1.9203993 -7.5487781 0
-8.0009792 -6.9497211 0
-9.66561 -1.6649439 0
-8.1266393 -4.4022016 0
-8.2554168 -2.1285612 0
-1.7429851 -2.383163 0
-10.634008 6.0430924 0
-9.3670074 -11.171138 0
6.9100173 -2.369209 0
-1.5174267 -5.2871498 0
-13.353238 -12.750925 0
5.1166127 0.79846057 0
-7.7842635 -3.8187271 0
1.811538 0.30024866 0
-5.0686863 -10.387438 0
-9.1540225 3.1308874 0
2.0811307 -10.976883 0
6.3570989 15.401552 0
1.6135867 5.5848112 0
5.0252323 -3.9106 0
4.7371753 -5.332645 0
-10.834643 1.6714098 0
-9.710316 9.2135019 0
-3.9062729 -14.874232 0
4.9584458 13.830549 0
-4.564564 0.63226121 0
3.6113875 0.21974796 0
0.74287883 -2.2555776 0
5.9310567 -6.61981 0
8.0673419 -12.282603 0
-8.7298805 3.2547232 0
-10.026366 9.1836739 0
0.82925202 -12.769115 0
-7.7306941 -5.6748727 0
-0.87265961 0.072476976 0
1.8377497 2.0878407 0
-6.8382936 -9.7724268 0
0.28928511 -12.116699 0
3.4161709 -9.4254823 0
-14.208645 0.65228914 0
0.28646828 -4.0691199 0
-9.7999542 -13.779544 0
-9.9073361 0.96228187 0
-1.6705356 -2.2350649 0
4.9115585 8.9749187 0
-7.3530786 -2.4047149 0
10.475166 4.1339096 0
3.8070341 12.097388 0
-9.2356 3.3961821 0
3.5776168 6.1181736 0
7.6695324 -2.5378512 0
-0.2013301 -9.6161581 0
1.4246851 -3.0553141 0
-7.732411 1.4588792 0
-13.516347 7.6076755 0
-12.560827 8.7673933 0
3.3785634 9.8878791 0
-0.94120142 -7.7414785 0
-12.827786 -2.932457 0
10.356785 -16.095151 0
-10.206235 1.3240833 0
-9.0779088 -6.9837289 0
-8.5114261 -3.2079456 0
-7.2729511 2.1176863 0
14.27325 2.4324611 0
-3.5643618 1.8214817 0
-8.4843226 -2.8002263 0
-8.4758789 -2.7191193 0
-8.4894866 -2.8425987 0
-8.5712099 -2.9182732 0
-8.4626328 -2.8516584 0
-8.2153019 -3.3111385 0
13.989061 1.8738389 0
-0.96133365 4.4960405 0
-8.2181516 1.47277 0
-10.835227 -4.820146 0
-4.8439811 6.5547496 0
-4.9145369 9.578058 0
0.79285367 4.5854777 0
1.9422221 -0.32367363 0
-4.56747 9.5568746 0
-9.9095295 5.8333502 0
-2.6016946 -9.8748525 0
-10.442771 -0.11187697 0
4.6098176 4.6257539 0
6.6718181 0.079764916 0
-9.7465433 0.080602448 0
5.6816926 2.9991739 0
-10.402856 0.93184532 0
6.5573889 8.3044003 0
-1.1594239 0.2592099 0
-2.6885806 -9.1318948 0
-2.3067536 -5.8497763 0
-5.5714863 -2.01338 0
-5.8474881 -0.54699304 0
3.6895601 -7.6144612 0
5.0035888 3.5954453 0
-12.123828 -3.2740039 0
-2.6894364 -1.9270851 0
-0.84594327 -7.9858657 0
-5.2448106 -3.1109093 0
-6.2383422 -2.9475807 0
-0.50522864 -0.67775439 0
-7.7744629 2.2021137 0
-1.8626237 2.2336822 0
-15.308417 5.0277216 0
-1.5058768 6.9996121 0
-9.9997467 0.01234543 0
-3.6889596 -7.7086207 0
-1.1849118 3.2929891 0
0.8344568 -6.7775538 0
-9.6785361 0.4089191 0
-7.7033337 -6.7222089 0
-2.2610184 -14.241614 0
-9.5602363 0.3709469 0
-9.2901514 3.0740178 0
4.1733034 -2.5084693 0
-10.73401 -2.811744 0
-5.4884589 -7.5364616 0
4.502793 1.0984768 0
-1.6576416 -1.4289447 0
-8.2229204 0.78996033 0
-9.6013949 2.5646542 0
-1.1017581 2.8399959 0
-9.8646515 3.0022567 0
-4.7814006 -0.60149974 0
5.0709166 8.3059252 0
0.090313564 -1.2396971 0
-10.242504 -1.2774228 0
-9.1941353 -9.1655711 0
-3.9213478 9.2724596 0
0.084969492 3.137343 0
-10.000159 0.010201878 0
-9.9846369 0.039631987 0
-1.6994802 -6.216721 0
-9.8829985 -2.3712694 0
-2.615911 -3.3279929 0
3.7133075 0.1941361 0
-10.866927 5.8279789 0
-10.926306 5.9511344 0
-10.925208 5.9617629 0
-10.925153 5.9623311 0
-10.924975 5.9620578 0
-10.924869 5.9624358 0
-10.88398 6.0322071 0
-10.961374 5.8688242 0
-10.668813 6.4651425 0
-6.8627113 -3.5896359 0
-1.0288221 -9.960735 0
-0.39313392 -9.673533 0
-0.38556877 -9.6535318 0
-0.31280438 -9.541602 0
-0.30561106 -9.5311367 0
1.3860503 10.101518 0
6.2455597 6.9393939 0
-10.047969 -0.0023182496 0
-10.21951 -0.064568159 0
-10.000011 0.010017583 0
-10.002654 0.003862414 0
-7.1349063 3.8592798 0
-10.054449 -0.14513464 0
-4.8012111 0.74546271 0
-2.6495701 5.0901729 0
1.7379823 11.087116 0
-9.979054 -0.039046247 0
-9.9941255 0.12850951 0
-9.9764402 -0.039881333 0
-10.041631 -0.065010346 0
-10.000118 -0.071580004 0
-9.975671 -0.040289231 0
-9.9753008 -0.039674651 0
8.3733809 -5.7103729 0
-9.9610288 -2.985848 0
-9.905431 0.062450045 0
-10.038677 0.013241924 0
-10.17951 -0.14667961 0
-10.174462 -0.15025214 0
-10.105991 -0.044128244 0
0.23099915 2.9478649 0
-12.032302 -2.5924119 0
-5.169807 19.65069 0
-10.003908 -0.0058383681 0
-9.9999987 0.0099912005 0
-10.000055 -4.0460871e-07 0
-10.000275 -2.1574077e-05 0
-10.000191 8.1650717e-05 0
-10.002931 0.00018425246 0
-10.002343 0.00091709036 0
-10.003434 0.003624768 0
-10.050038 1.5623928 0
-10.021175 2.4354131 0
-10.018766 2.4345847 0
-10.018727 2.4451887 0
-10.017481 2.4455784 0
-9.9940006 2.5388604 0
-10.273345 1.0075704 0
-9.8465516 -0.23355194 0
-1.6611382 9.7392109 0
-0.3721825 9.3888048 0
-10.002089 -0.0023816027 0
-10.004051 0.00017892752 0
-10.003979 0.00019151414 0
-9.9995343 0.0012151943 0
6.9924251 -5.7944902 0
-10.084285 0.042480229 0
-9.214734 -3.2820878 0
-3.9185525 6.2786229 0
-9.9999642 0.0099888494 0
-9.9999943 -3.5744757e-05 0
-9.999995 1.0062449e-06 0
-9.999998 2.8426532e-06 0
-10.000003 2.5511781e-06 0
-10.000007 8.7412774e-06 0
-9.9995959 0.0011017736 0
-1.7740073 -7.1937965 0
7.029319 1.0527191 0
6.8332025 0.16285949 0
6.8370518 0.16406503 0
6.8325533 0.15315923 0
6.8341459 0.15285027 0
6.8255645 0.058515802 0
6.7647815 1.6120212 0
6.8979067 2.9459956 0
-9.9962313 -0.024036731 0
-10.009592 -0.01008217 0
-10.000011 -1.2906525e-05 0
-10.000008 0.00051212388 0
-11.82835 -5.3472984 0
-10.005284 -0.0082573557 0
-10.000149 0.00039057845 0
-0.46211069 2.5746833 0
-10.000219 -0.010229811 0
-9.9999316 0.0099888199 0
-9.9999901 -3.4259888e-05 0
-9.9999902 3.1009542e-06 0
-9.9999902 3.8961799e-06 0
-9.9999903 3.9111631e-06 0
-9.9999922 6.5007495e-06 0
-10.000162 0.00018779542 0
-10.00217 -0.00035077351 0
-10.002801 -0.00071501866 0
-10.002727 -0.00068764751 0
-10.002728 -0.00068756389 0
-10.002726 -0.00068654076 0
-10.002728 -0.00068586544 0
-10.002728 -0.00070512567 0
-10.002583 -0.00059090708 0
-10.004849 0.022546059 0
-9.9994717 -0.015530981 0
-10.000011 -3.0259721e-05 0
-9.9999907 5.4764375e-06 0
-10.000031 8.1723991e-05 0
-10.050507 0.0031633271 0
-10.000084 -0.0001207905 0
-10.000006 1.1995303e-05 0
-10.000087 4.3183962e-05 0
-10.000001 -0.0099936097 0
-9.9999082 0.0099888042 0
-9.9999866 -3.2717297e-05 0
-9.9999867 4.573664e-06 0
-9.9999867 5.3694041e-06 0
-9.9999866 5.3690237e-06 0
-9.9999866 5.3666401e-06 0
-9.9999898 7.0601018e-06 0
-9.9999976 7.3694834e-06 0
-10.000002 5.6586769e-06 0
-10.000002 5.5977833e-06 0
-10.000002 5.6009423e-06 0
-10.000002 5.49632e-06 0
-9.9999915 1.3928396e-05 0
-9.9999913 1.3747318e-05 0
-9.9999957 2.8725011e-05 0
-10.001862 0.009069417 0
-10.002894 -0.03455126 0
-9.9999783 -4.8385259e-06 0
-9.9999733 1.5575419e-05 0
-9.9999766 1.756987e-05 0
-9.9999868 1.5609535e-05 0
-9.999978 1.2906237e-05 0
-9.9999734 1.6536854e-05 0
-9.9999732 5.4310789e-05 0
-9.9999727 -0.0099728536 0
-9.9997237 0.0099886733 0
-9.9999714 -2.1284416e-05 0
-9.9999711 1.5759815e-05 0
-9.999971 1.7043886e-05 0
-9.9999699 1.8025222e-05 0
-9.9999699 1.8019589e-05 0
-9.9999699 1.8019678e-05 0
-9.9999699 1.80133e-05 0
-9.9999694 1.8512375e-05 0
-9.9999688 1.8504335e-05 0
-9.9999688 1.8993166e-05 0
-9.9999687 1.8995347e-05 0
-9.9999689 1.9009953e-05 0
-9.9999684 1.9000057e-05 0
-9.9999702 2.1468723e-05 0
-10.000025 5.0355621e-05 0
-10.000053 -1.93064e-05 0
-9.9999705 1.678211e-05 0
-9.9999672 2.0393446e-05 0
-9.9999605 2.6855867e-05 0
-9.9999604 2.6783852e-05 0
-9.9999599 2.6776671e-05 0
-9.9999598 2.8069208e-05 0
-9.9999598 6.550039e-05 0
-9.999959 -0.009960949 0
-9.9995419 0.0099885747 0
-9.9999577 -9.9452126e-06 0
-9.9999577 2.6952467e-05 0
-9.9999578 2.8246716e-05 0
-9.9999572 2.8713763e-05 0
-9.9999561 2.9714478e-05 0
-9.999956 2.9699748e-05 0
-9.999956 2.9700612e-05 0
-9.999956 2.9702201e-05 0
-9.999956 2.9705119e-05 0
-9.9999553 2.9700027e-05 0
-9.9999553 3.0198483e-05 0
-9.9999548 3.0191077e-05 0
-9.9999548 3.0671642e-05 0
-9.9999537 3.164884e-05 0
-9.999954 3.2353204e-05 0
-9.9999541 3.1952216e-05 0
-9.9999513 3.262405e-05 0
-9.9999508 3.4088615e-05 0
-9.999951 3.4092691e-05 0
-9.999951 3.4088351e-05 0
-9.9999511 3.4087496e-05 0
-9.999951 3.4888878e-05 0
-9.9999509 7.232948e-05 0
-9.9999506 -0.009954586 0
-9.9994112 0.0099914045 0
-9.9999215 -1.0134859e-05 0
-9.99992 2.7962166e-05 0
-9.9999195 2.9244912e-05 0
-9.999919 2.9230155e-05 0
-9.9999175 3.0195665e-05 0
-9.9999168 3.1677884e-05 0
-9.9999079 3.2165878e-05 0
-9.999907 3.2629048e-05 0
-9.9999057 3.3624116e-05 0
-9.9999052 3.4585669e-05 0
-9.9999051 3.4581671e-05 0
-9.9999046 3.4577981e-05 0
-9.9999045 3.5059777e-05 0
-9.999904 3.5569244e-05 0
-9.9999034 3.5548633e-05 0
-9.9999029 3.6046612e-05 0
-9.9999029 3.6533427e-05 0
-9.9999029 3.652998e-05 0
-9.9998944 3.6519388e-05 0
-9.9998938 3.7506141e-05 0
-9.9998851 3.7984051e-05 0
-9.9998854 3.8774577e-05 0
-9.9998857 7.591414e-05 0
-9.9998935 -0.0099535304 0
-10.008808 0.0094368307 0
-10.009914 8.819111e-06 0
-10.009912 3.7416892e-05 0
-10.009911 3.8708528e-05 0
-10.009909 3.9690412e-05 0
-10.009909 4.0174829e-05 0
-10.009909 4.0187062e-05 0
-10.009909 4.0174596e-05 0
-10.009925 4.068716e-05 0
-10.009925 4.0688021e-05 0
-10.009924 4.0179634e-05 0
-10.009916 4.1182002e-05 0
-10.009915 4.1654574e-05 0
-10.009915 4.2652312e-05 0
-10.009914 4.2643401e-05 0
-10.009914 4.3137005e-05 0
-10.009913 4.3623022e-05 0
-10.009913 4.4124194e-05 0
-10.009913 4.4121571e-05 0
-10.009913 4.4107969e-05 0
-10.009911 4.5615824e-05 0
-10.009912 4.5586729e-05 0
-10.009903 4.685566e-05 0
-10.009905 7.6434803e-05 0
-10.009352 -0.0093917763 0
9.3664088 -3.8409617 0
-3.476186 -4.6079223 0
-3.4378251 16.33391 0
6.987798 -11.314252 0
0.31104358 -3.1426106 0
1.1828502 -6.9676067 0
2.2071574 1.6681988 0
-11.677861 -3.9857457 0
1.8351814 4.238189 0
-3.0108618 4.3947026 0
7.720038 -12.615207 0
4.9464656 -11.633883 0
-10.387135 2.5873275 0
1.2174379 -3.5711148 0
1.2474363 -8.8476837 0
-4.0792113 -5.3337946 0
15.295927 0.70661205 0
-19.948056 -10.617224 0
1.6439601 11.010302 0
-1.6240817 12.111024 0
-4.1269702 2.2840061 0
0.37729842 10.110373 0
8.224591 4.6948243 0
-2.6282326 22.954805 0
-9.4775369 5.5652073 0
7.362993 -2.0845884 0
2.4449034 -4.631662 0
5.2289318 0.074757197 0
1.3294359 -5.6087807 0
-9.2114441 -6.1381695 0
0.80617429 -7.7180727 0
5.0183551 2.6529315 0
2.2351479 10.392453 0
0.034355869 -2.3978141 0
6.6501733 10.743737 0
-3.7187073 5.257362 0
-0.23709111 -8.5420779 0
4.8105302 -0.21556783 0
-8.7195158 4.3399524 0
-0.086338842 5.990707 0
1.1180602 6.3235271 0
11.524149 4.7460684 0
-4.2545822 -5.5109537 0
-6.9242175 2.5724182 0
-6.7295149 0.91090791 0
9.80873 -1.2944749 0
-5.6745461 6.9233406 0
6.2173107 0.27872098 0
7.856354 5.4602085 0
-0.12116773 9.3398329 0
8.2358595 -6.0207248 0
0.6176322 -0.40053501 0
-5.4396279 -1.4351536 0
-6.8621727 -6.0656984 0
-6.6663582 14.816343 0
-0.62215731 2.2100776 0
-2.227001 -12.982124 0
7.9137149 -15.827465 0
-7.6826904 7.3697353 0
2.3786122 -4.9175788 0
3.035685 -1.7970691 0
-2.2144947 -10.815776 0
-8.6981379 9.8733177 0
-1.3956826 5.299121 0
-0.25539031 4.1679402 0
7.2383651 1.8742404 0
4.890965 0.74935871 0
-4.4070197 -7.376539 0
7.4322715 0.17221677 0
7.3320557 1.5135527 0
5.0714462 5.4556815 0
2.4684573 1.1323422 0
5.7708617 3.6695174 0
9.6296474 0.19584981 0
3.0665363 -9.290538 0
-6.5485123 -6.7367903 0
-1.9776971 -10.564142 0
-11.251387 -3.8212015 0
-1.9693154 -0.89909959 0
-3.1415258 2.3961605 0
13.808779 -3.0370872 0
-2.5229303 3.0801022 0
7.4824892 2.4449952 0
-2.1862081 5.3887417 0
-7.6419426 1.2099976 0
-2.5237573 1.6544344 0
0.713262 0.24479997 0
9.3019837 5.6791551 0
-1.1636677 7.1419488 0
-12.700141 17.458675 0
-7.0986276 -4.7718264 0
4.5750656 -14.223084 0
-7.1939707 -3.4247954 0
-8.6953657 12.437456 0
-8.0890358 -6.3141201 0
-0.1865361 -3.2640111 0
10.978845 1.1121392 0
-0.27164312 5.9779194 0
7.1232368 2.7692376 0
7.0375693 8.2929063 0