# vtk DataFile Version 4.0
hesp visualization file
ASCII
DATASET UNSTRUCTURED_GRID
POINTS 1250 double
30.722469 1.1224687 4
30.722469 2.2449241 4
30.722469 3.3673861 4
30.722469 4.4898482 4
30.722469 5.6123102 4
30.722469 6.7347723 4
30.722469 7.8572343 4
30.722469 8.9796964 4
30.722469 10.102158 4
30.722469 11.22462 4
30.722469 12.347083 4
30.722469 13.469545 4
30.722469 14.592007 4
30.722469 15.714469 4
30.722469 16.836931 4
30.722469 17.959393 4
30.722469 19.081855 4
30.722469 20.204317 4
30.722469 21.326779 4
30.722469 22.449241 4
30.722469 23.571703 4
30.722469 24.694165 4
30.722469 25.816627 4
30.722469 26.939089 4
30.722469 28.061545 4
31.844924 1.1224691 4
31.844924 2.2449241 4
31.844924 3.3673861 4
31.844924 4.4898482 4
31.844924 5.6123102 4
31.844924 6.7347723 4
31.844924 7.8572343 4
31.844924 8.9796964 4
31.844924 10.102158 4
31.844924 11.22462 4
31.844924 12.347083 4
31.844924 13.469545 4
31.844924 14.592007 4
31.844924 15.714469 4
31.844924 16.836931 4
31.844924 17.959393 4
31.844924 19.081855 4
31.844924 20.204317 4
31.844924 21.326779 4
31.844924 22.449241 4
31.844924 23.571703 4
31.844924 24.694165 4
31.844924 25.816627 4
31.844924 26.939089 4
31.844924 28.061544 4
32.967386 1.1224691 4
32.967386 2.2449241 4
32.967386 3.3673861 4
32.967386 4.4898482 4
32.967386 5.6123102 4
32.967386 6.7347723 4
32.967386 7.8572343 4
32.967386 8.9796964 4
32.967386 10.102158 4
32.967386 11.22462 4
32.967386 12.347083 4
32.967386 13.469545 4
32.967386 14.592007 4
32.967386 15.714469 4
32.967386 16.836931 4
32.967386 17.959393 4
32.967386 19.081855 4
32.967386 20.204317 4
32.967386 21.326779 4
32.967386 22.449241 4
32.967386 23.571703 4
32.967386 24.694165 4
32.967386 25.816627 4
32.967386 26.939089 4
32.967386 28.061544 4
34.089848 1.1224691 4
34.089848 2.2449241 4
34.089848 3.3673861 4
34.089848 4.4898482 4
34.089848 5.6123102 4
34.089848 6.7347723 4
34.089848 7.8572343 4
34.089848 8.9796964 4
34.089848 10.102158 4
34.089848 11.22462 4
34.089848 12.347083 4
34.089848 13.469545 4
34.089848 14.592007 4
34.089848 15.714469 4
34.089848 16.836931 4
34.089848 17.959393 4
34.089848 19.081855 4
34.089848 20.204317 4
34.089848 21.326779 4
34.089848 22.449241 4
34.089848 23.571703 4
34.089848 24.694165 4
34.089848 25.816627 4
34.089848 26.939089 4
34.089848 28.061544 4
35.21231 1.1224691 4
35.21231 2.2449241 4
35.21231 3.3673861 4
35.21231 4.4898482 4
35.21231 5.6123102 4
35.21231 6.7347723 4
35.21231 7.8572343 4
35.21231 8.9796964 4
35.21231 10.102158 4
35.21231 11.22462 4
35.21231 12.347083 4
35.21231 13.469545 4
35.21231 14.592007 4
35.21231 15.714469 4
35.21231 16.836931 4
35.21231 17.959393 4
35.21231 19.081855 4
35.21231 20.204317 4
35.21231 21.326779 4
35.21231 22.449241 4
35.21231 23.571703 4
35.21231 24.694165 4
35.21231 25.816627 4
35.21231 26.939089 4
35.21231 28.061544 4
36.334772 1.1224691 4
36.334772 2.2449241 4
36.334772 3.3673861 4
36.334772 4.4898482 4
36.334772 5.6123102 4
36.334772 6.7347723 4
36.334772 7.8572343 4
36.334772 8.9796964 4
36.334772 10.102158 4
36.334772 11.22462 4
36.334772 12.347083 4
36.334772 13.469545 4
36.334772 14.592007 4
36.334772 15.714469 4
36.334772 16.836931 4
36.334772 17.959393 4
36.334772 19.081855 4
36.334772 20.204317 4
36.334772 21.326779 4
36.334772 22.449241 4
36.334772 23.571703 4
36.334772 24.694165 4
36.334772 25.816627 4
36.334772 26.939089 4
36.334772 28.061544 4
37.457234 1.1224691 4
37.457234 2.2449241 4
37.457234 3.3673861 4
37.457234 4.4898482 4
37.457234 5.6123102 4
37.457234 6.7347723 4
37.457234 7.8572343 4
37.457234 8.9796964 4
37.457234 10.102158 4
37.457234 11.22462 4
37.457234 12.347083 4
37.457234 13.469545 4
37.457234 14.592007 4
37.457234 15.714469 4
37.457234 16.836931 4
37.457234 17.959393 4
37.457234 19.081855 4
37.457234 20.204317 4
37.457234 21.326779 4
37.457234 22.449241 4
37.457234 23.571703 4
37.457234 24.694165 4
37.457234 25.816627 4
37.457234 26.939089 4
37.457234 28.061544 4
38.579696 1.1224691 4
38.579696 2.2449241 4
38.579696 3.3673861 4
38.579696 4.4898482 4
38.579696 5.6123102 4
38.579696 6.7347723 4
38.579696 7.8572343 4
38.579696 8.9796964 4
38.579696 10.102158 4
38.579696 11.22462 4
38.579696 12.347083 4
38.579696 13.469545 4
38.579696 14.592007 4
38.579696 15.714469 4
38.579696 16.836931 4
38.579696 17.959393 4
38.579696 19.081855 4
38.579696 20.204317 4
38.579696 21.326779 4
38.579696 22.449241 4
38.579696 23.571703 4
38.579696 24.694165 4
38.579696 25.816627 4
38.579696 26.939089 4
38.579696 28.061544 4
39.702158 1.1224691 4
39.702158 2.2449241 4
39.702158 3.3673861 4
39.702158 4.4898482 4
39.702158 5.6123102 4
39.702158 6.7347723 4
39.702158 7.8572343 4
39.702158 8.9796964 4
39.702158 10.102158 4
39.702158 11.22462 4
39.702158 12.347083 4
39.702158 13.469545 4
39.702158 14.592007 4
39.702158 15.714469 4
39.702158 16.836931 4
39.702158 17.959393 4
39.702158 19.081855 4
39.702158 20.204317 4
39.702158 21.326779 4
39.702158 22.449241 4
39.702158 23.571703 4
39.702158 24.694165 4
39.702158 25.816627 4
39.702158 26.939089 4
39.702158 28.061544 4
40.82462 1.1224691 4
40.82462 2.2449241 4
40.82462 3.3673861 4
40.82462 4.4898482 4
40.82462 5.6123102 4
40.82462 6.7347723 4
40.82462 7.8572343 4
40.82462 8.9796964 4
40.82462 10.102158 4
40.82462 11.22462 4
40.82462 12.347083 4
40.82462 13.469545 4
40.82462 14.592007 4
40.82462 15.714469 4
40.82462 16.836931 4
40.82462 17.959393 4
40.82462 19.081855 4
40.82462 20.204317 4
40.82462 21.326779 4
40.82462 22.449241 4
40.82462 23.571703 4
40.82462 24.694165 4
40.82462 25.816627 4
40.82462 26.939089 4
40.82462 28.061544 4
41.947083 1.1224691 4
41.947083 2.2449241 4
41.947083 3.3673861 4
41.947083 4.4898482 4
41.947083 5.6123102 4
41.947083 6.7347723 4
41.947083 7.8572343 4
41.947083 8.9796964 4
41.947083 10.102158 4
41.947083 11.22462 4
41.947083 12.347083 4
41.947083 13.469545 4
41.947083 14.592007 4
41.947083 15.714469 4
41.947083 16.836931 4
41.947083 17.959393 4
41.947083 19.081855 4
41.947083 20.204317 4
41.947083 21.326779 4
41.947083 22.449241 4
41.947083 23.571703 4
41.947083 24.694165 4
41.947083 25.816627 4
41.947083 26.939089 4
41.947083 28.061544 4
43.069545 1.1224691 4
43.069545 2.2449241 4
43.069545 3.3673861 4
43.069545 4.4898482 4
43.069545 5.6123102 4
43.069545 6.7347723 4
43.069545 7.8572343 4
43.069545 8.9796964 4
43.069545 10.102158 4
43.069545 11.22462 4
43.069545 12.347083 4
43.069545 13.469545 4
43.069545 14.592007 4
43.069545 15.714469 4
43.069545 16.836931 4
43.069545 17.959393 4
43.069545 19.081855 4
43.069545 20.204317 4
43.069545 21.326779 4
43.069545 22.449241 4
43.069545 23.571703 4
43.069545 24.694165 4
43.069545 25.816627 4
43.069545 26.939089 4
43.069545 28.061544 4
44.192007 1.1224691 4
44.192007 2.2449241 4
44.192007 3.3673861 4
44.192007 4.4898482 4
44.192007 5.6123102 4
44.192007 6.7347723 4
44.192007 7.8572343 4
44.192007 8.9796964 4
44.192007 10.102158 4
44.192007 11.22462 4
44.192007 12.347083 4
44.192007 13.469545 4
44.192007 14.592007 4
44.192007 15.714469 4
44.192007 16.836931 4
44.192007 17.959393 4
44.192007 19.081855 4
44.192007 20.204317 4
44.192007 21.326779 4
44.192007 22.449241 4
44.192007 23.571703 4
44.192007 24.694165 4
44.192007 25.816627 4
44.192007 26.939089 4
44.192007 28.061544 4
45.314469 1.1224691 4
45.314469 2.2449241 4
45.314469 3.3673861 4
45.314469 4.4898482 4
45.314469 5.6123102 4
45.314469 6.7347723 4
45.314469 7.8572343 4
45.314469 8.9796964 4
45.314469 10.102158 4
45.314469 11.22462 4
45.314469 12.347083 4
45.314469 13.469545 4
45.314469 14.592007 4
45.314469 15.714469 4
45.314469 16.836931 4
45.314469 17.959393 4
45.314469 19.081855 4
45.314469 20.204317 4
45.314469 21.326779 4
45.314469 22.449241 4
45.314469 23.571703 4
45.314469 24.694165 4
45.314469 25.816627 4
45.314469 26.939089 4
45.314469 28.061544 4
46.436931 1.1224691 4
46.436931 2.2449241 4
46.436931 3.3673861 4
46.436931 4.4898482 4
46.436931 5.6123102 4
46.436931 6.7347723 4
46.436931 7.8572343 4
46.436931 8.9796964 4
46.436931 10.102158 4
46.436931 11.22462 4
46.436931 12.347083 4
46.436931 13.469545 4
46.436931 14.592007 4
46.436931 15.714469 4
46.436931 16.836931 4
46.436931 17.959393 4
46.436931 19.081855 4
46.436931 20.204317 4
46.436931 21.326779 4
46.436931 22.449241 4
46.436931 23.571703 4
46.436931 24.694165 4
46.436931 25.816627 4
46.436931 26.939089 4
46.436931 28.061544 4
47.559393 1.1224691 4
47.559393 2.2449241 4
47.559393 3.3673861 4
47.559393 4.4898482 4
47.559393 5.6123102 4
47.559393 6.7347723 4
47.559393 7.8572343 4
47.559393 8.9796964 4
47.559393 10.102158 4
47.559393 11.22462 4
47.559393 12.347083 4
47.559393 13.469545 4
47.559393 14.592007 4
47.559393 15.714469 4
47.559393 16.836931 4
47.559393 17.959393 4
47.559393 19.081855 4
47.559393 20.204317 4
47.559393 21.326779 4
47.559393 22.449241 4
47.559393 23.571703 4
47.559393 24.694165 4
47.559393 25.816627 4
47.559393 26.939089 4
47.559393 28.061544 4
48.681855 1.1224691 4
48.681855 2.2449241 4
48.681855 3.3673861 4
48.681855 4.4898482 4
48.681855 5.6123102 4
48.681855 6.7347723 4
48.681855 7.8572343 4
48.681855 8.9796964 4
48.681855 10.102158 4
48.681855 11.22462 4
48.681855 12.347083 4
48.681855 13.469545 4
48.681855 14.592007 4
48.681855 15.714469 4
48.681855 16.836931 4
48.681855 17.959393 4
48.681855 19.081855 4
48.681855 20.204317 4
48.681855 21.326779 4
48.681855 22.449241 4
48.681855 23.571703 4
48.681855 24.694165 4
48.681855 25.816627 4
48.681855 26.939089 4
48.681855 28.061544 4
49.804317 1.1224691 4
49.804317 2.2449241 4
49.804317 3.3673861 4
49.804317 4.4898482 4
49.804317 5.6123102 4
49.804317 6.7347723 4
49.804317 7.8572343 4
49.804317 8.9796964 4
49.804317 10.102158 4
49.804317 11.22462 4
49.804317 12.347083 4
49.804317 13.469545 4
49.804317 14.592007 4
49.804317 15.714469 4
49.804317 16.836931 4
49.804317 17.959393 4
49.804317 19.081855 4
49.804317 20.204317 4
49.804317 21.326779 4
49.804317 22.449241 4
49.804317 23.571703 4
49.804317 24.694165 4
49.804317 25.816627 4
49.804317 26.939089 4
49.804317 28.061544 4
50.926779 1.1224691 4
50.926779 2.2449241 4
50.926779 3.3673861 4
[...]
POINT_DATA 1250
SCALARS m double
LOOKUP_TABLE default
1
1
1
1
1
1
1
1
1
1
1
1
1
1
1
1
1
1
1
1
1
1
1
1
1
1
1
1
1
1
1
1
1
1
1
1
1
1
1
1
1
1
1
1
1
1
1
1
1
1
1
1
1
1
1
1
1
1
1
1
1
1
1
1
1
1
1
1
1
1
1
1
1
1
1
1
1
1
1
1
1
1
1
1
1
1
1
1
1
1
1
1
1
1
1
1
1
1
1
1
1
1
1
1
1
1
1
1
1
1
1
1
1
1
1
1
1
1
1
1
1
1
1
1
1
1
1
1
1
1
1
1
1
1
1
1
1
1
1
1
1
1
1
1
1
1
1
1
1
1
1
1
1
1
1
1
1
1
1
1
1
1
1
1
1
1
1
1
1
1
1
1
1
1
1
1
1
1
1
1
1
1
1
1
1
1
1
1
1
1
1
1
1
1
1
1
1
1
1
1
1
1
1
1
1
1
1
1
1
1
1
1
1
1
1
1
1
1
1
1
1
1
1
1
1
1
1
1
1
1
1
1
1
1
1
1
1
1
1
1
1
1
1
1
1
1
1
1
1
1
1
1
1
1
1
1
1
1
1
1
1
1
1
1
1
1
1
1
1
1
1
1
1
1
1
1
1
1
1
1
1
1
1
1
1
1
1
1
1
1
1
1
1
1
1
1
1
1
1
1
1
1
1
1
1
1
1
1
1
1
1
1
1
1
1
1
1
1
1
1
1
1
1
1
1
1
1
1
1
1
1
1
1
1
1
1
1
1
1
1
1
1
1
1
1
1
1
1
1
1
1
1
1
1
1
1
1
1
1
1
1
1
1
1
1
1
1
1
1
1
1
1
1
1
1
1
1
1
1
1
1
1
1
1
1
1
1
1
1
1
1
1
1
1
1
1
1
1
1
1
1
1
1
1
1
1
1
1
1
1
1
1
1
1
1
1
1
1
1
1
1
1
1
1
1
1
1
1
1
1
1
1
1
1
1
1
1
1
1
1
1
1
1
1
1
1
1
1
1
1
1
1
1
1
1
1
1
1
1
1
1
1
1
1
1
1
1
1
1
1
1
1
1
1
1
1
1
1
1
1
1
1
1
1
1
1
1
1
1
1
1
1
1
1
1
1
1
1
1
1
1
1
1
1
1
1
1
1
1
1
1
1
1
1
1
1
1
1
1
1
1
1
1
1
1
1
1
1
1
1
1
1
1
1
1
1
1
1
1
1
1
1
1
1
1
1
1
1
1
1
1
1
1
1
1
1
1
1
1
1
1
1
1
1
1
1
1
1
1
1
1
1
1
1
1
1
1
1
1
1
1
1
1
1
1
1
1
1
1
1
1
1
1
1
1
1
1
1
1
1
1
1
1
1
1
1
1
1
1
1
1
1
1
1
1
1
1
1
1
1
1
1
1
1
1
1
1
1
1
1
1
1
1
1
1
1
1
1
1
1
1
1
1
1
1
1
1
1
1
1
1
1
1
1
1
1
1
1
1
1
1
1
1
1
1
1
1
1
1
1
1
1
1
1
1
1
1
1
1
1
1
1
1
1
1
1
1
1
1
1
1
1
1
1
1
1
1
1
1
1
1
1
1
1
1
1
1
1
1
1
1
1
1
1
1
1
1
1
1
1
1
1
1
1
1
1
1
1
1
1
1
1
1
1
1
1
1
1
1
1
1
1
1
1
1
1
1
1
1
1
1
1
1
1
1
1
1
1
1
1
1
1
1
1
1
1
1
1
1
1
1
1
1
1
1
1
1
1
1
1
1
1
1
1
1
1
1
1
1
1
1
1
1
1
1
1
1
1
1
1
1
1
1
1
1
1
1
1
1
1
1
1
1
1
1
1
1
1
1
1
1
1
1
1
1
1
1
1
1
1
1
1
1
1
1
1
1
1
1
1
1
1
1
1
1
1
1
1
1
1
1
1
1
1
1
1
1
1
1
1
1
1
1
1
1
1
1
1
1
1
1
1
1
1
1
1
1
1
1
1
1
1
1
1
1
1
1
1
1
1
1
1
1
1
1
1
1
1
1
1
1
1
1
1
1
1
1
1
1
1
1
1
1
1
1
1
1
1
1
1
1
1
1
1
1
1
1
1
1
1
1
1
1
1
1
1
1
1
1
1
1
1
1
1
1
1
1
1
1
1
1
1
1
1
1
1
1
1
1
1
1
1
1
1
1
1
1
1
1
1
1
1
1
1
1
1
1
1
1
1
1
1
1
1
1
1
1
1
1
1
1
1
1
1
1
1
1
1
1
1
1
1
1
1
1
1
1
1
1
1
1
1
1
1
1
1
1
1
1
1
1
1
1
1
1
1
1
1
1
1
1
1
1
1
1
1
1
1
1
1
1
1
1
1
1
1
1
1
1
1
1
1
1
1
1
1
1
1
1
1
1
1
1
1
1
1
1
1
1
1
1
1
1
1
1
1
1
1
1
1
1
1
1
1
1
1
1
1
1
1
1
1
1
1
1
1
1
1
1
1
1
1
1
1
1
1
1
1
1
1
1
1
1
1
1
1
1
1
1
1
1
1
1
1
1
1
1
1
1
1
1
1
1
1
1
1
1
1
1
1
1
1
1
1
1
1
1
1
1
1
1
1
1
1
1
1
1
1
1
1
1
1
1
1
1
1
1
1
1
1
1
1
1
1
1
1
1
1
1
1
1
1
1
1
1
1
1
1
1
1
1
1
1
1
1
1
1
1
1
1
1
1
1
1
1
1
1
1
1
1
1
1
1
1
1
1
1
1
1
1
1
1
1
1
1
1
1
1
1
1
1
1
1
1
1
1
1
1
1
1
1
1
1
1
1
1
1
1
1
1
VECTORS v double
-9.9996847 0.00033562675 0
-9.9996686 2.4310662e-06 0
-9.9996686 -4.939313e-11 0
-9.9996686 -1.0691052e-13 0
-9.9996686 1.480749e-14 0
-9.9996686 1.4784331e-14 0
-9.9996686 1.4785379e-14 0
-9.9996686 1.4687069e-14 0
-9.9996686 1.5017303e-14 0
-9.9996686 1.4586349e-14 0
-9.9996686 1.478227e-14 0
-9.9996686 1.4977942e-14 0
-9.9996686 1.4574889e-14 0
-9.9996686 1.4778274e-14 0
-9.9996686 2.8613256e-14 0
-9.9996686 3.0479638e-14 0
-9.9996686 1.5179584e-14 0
-9.9996686 1.5385261e-14 0
-9.9996686 1.5394069e-14 0
-9.9996686 1.5578358e-14 0
-9.9996686 1.5186423e-14 0
-9.9996686 1.3845657e-13 0
-9.9996686 4.9401943e-11 0
-9.9996686 -2.4310654e-06 0
-9.9996847 -0.00033562675 0
-9.9999976 0.00035292077 0
-9.9999976 2.4307333e-06 0
-9.9999976 -5.107801e-11 0
-9.9999976 -1.2307185e-13 0
-9.9999976 2.1847291e-17 0
-9.9999976 -1.5280819e-18 0
-9.9999976 -3.0017558e-19 0
-9.9999976 -1.0077462e-16 0
-9.9999976 2.3724732e-16 0
-9.9999976 -2.0417799e-16 0
-9.9999976 -3.2944672e-18 0
-9.9999976 1.980465e-16 0
-9.9999976 -2.027532e-16 0
-9.9999976 -8.786011e-18 0
-9.9999976 3.9689954e-18 0
-9.9999976 2.1104891e-16 0
-9.9999976 -2.1141298e-16 0
-9.9999976 -7.3045811e-19 0
-9.9999976 8.164555e-18 0
-9.9999976 1.9735375e-16 0
-9.9999976 -2.042423e-16 0
-9.9999976 1.2305601e-13 0
-9.9999976 5.1077996e-11 0
-9.9999976 -2.4307333e-06 0
-9.9999976 -0.00035292077 0
-10 0.00035292064 0
-10 2.4307187e-06 0
-10 -5.1077886e-11 0
-10 -1.2307147e-13 0
-10 2.2016874e-17 0
-10 -1.4924414e-18 0
-10 -2.983804e-19 0
-10 -1.0087543e-16 0
-10 2.3726254e-16 0
-10 -2.0420238e-16 0
-10 -3.3889978e-18 0
-10 1.9789452e-16 0
-10 -2.0297578e-16 0
-10 -8.5865942e-18 0
-10 4.0464692e-18 0
-10 2.1112086e-16 0
-10 -2.1144694e-16 0
-10 -7.2999547e-19 0
-10 8.2004045e-18 0
-10 1.9728808e-16 0
-10 -2.0435675e-16 0
-10 1.230554e-13 0
-10 5.1077866e-11 0
-10 -2.4307187e-06 0
-10 -0.00035292064 0
-10 0.00035292064 0
-10 2.4307187e-06 0
-10 -5.1077882e-11 0
-10 -1.2307154e-13 0
-10 2.2188135e-17 0
-10 -1.4460008e-18 0
-10 -3.1405236e-19 0
-10 -1.0099726e-16 0
-10 2.372523e-16 0
-10 -2.0423465e-16 0
-10 -3.4783088e-18 0
-10 1.9774229e-16 0
-10 -2.032014e-16 0
-10 -8.4176377e-18 0
-10 4.1280379e-18 0
-10 2.1120936e-16 0
-10 -2.1146334e-16 0
-10 -7.2977895e-19 0
-10 8.2111067e-18 0
-10 1.9722537e-16 0
-10 -2.0447046e-16 0
-10 1.2305512e-13 0
-10 5.1077862e-11 0
-10 -2.4307187e-06 0
-10 -0.00035292064 0
-10 0.00035292064 0
-10 2.4307187e-06 0
-10 -5.1077882e-11 0
-10 -1.2307149e-13 0
-10 2.2063103e-17 0
-10 -1.4693437e-18 0
-10 -2.9980448e-19 0
-10 -1.0091678e-16 0
-10 2.3722763e-16 0
-10 -2.0420139e-16 0
-10 -3.4185441e-18 0
-10 1.9780635e-16 0
-10 -2.0301144e-16 0
-10 -8.5474646e-18 0
-10 4.0583135e-18 0
-10 2.1114284e-16 0
-10 -2.1142351e-16 0
-10 -7.2996396e-19 0
-10 8.1711138e-18 0
-10 1.9731499e-16 0
-10 -2.044278e-16 0
-10 1.2305525e-13 0
-10 5.1077862e-11 0
-10 -2.4307187e-06 0
-10 -0.00035292064 0
-10 0.00035292064 0
-10 2.4307187e-06 0
-10 -5.1077882e-11 0
-10 -1.2307146e-13 0
-10 2.2065736e-17 0
-10 -1.5013116e-18 0
-10 -2.9542054e-19 0
-10 -1.0088874e-16 0
-10 2.3722382e-16 0
-10 -2.0417296e-16 0
-10 -3.4371986e-18 0
-10 1.9779801e-16 0
-10 -2.0299839e-16 0
-10 -8.5500285e-18 0
-10 4.0784293e-18 0
-10 2.1114344e-16 0
-10 -2.1143137e-16 0
-10 -7.3076886e-19 0
-10 8.1737606e-18 0
-10 1.9731688e-16 0
-10 -2.0441098e-16 0
-10 1.2305536e-13 0
-10 5.1077862e-11 0
-10 -2.4307187e-06 0
-10 -0.00035292064 0
-10 0.00035292064 0
-10 2.4307187e-06 0
-10 -5.1077882e-11 0
-10 -1.2307147e-13 0
-10 2.2068439e-17 0
-10 -1.4720216e-18 0
-10 -3.0190929e-19 0
-10 -1.0089317e-16 0
-10 2.3724449e-16 0
-10 -2.0421904e-16 0
-10 -3.4210629e-18 0
-10 1.9782295e-16 0
-10 -2.0301925e-16 0
-10 -8.5416704e-18 0
-10 4.0898739e-18 0
-10 2.1114431e-16 0
-10 -2.1143038e-16 0
-10 -7.2977895e-19 0
-10 8.1694733e-18 0
-10 1.9731991e-16 0
-10 -2.04433e-16 0
-10 1.2305536e-13 0
-10 5.1077862e-11 0
-10 -2.4307187e-06 0
-10 -0.00035292064 0
-10 0.00035292064 0
-10 2.4307187e-06 0
-10 -5.1077882e-11 0
-10 -1.2307148e-13 0
-10 2.2062367e-17 0
-10 -1.4546744e-18 0
-10 -3.0190929e-19 0
-10 -1.0091052e-16 0
-10 2.3724449e-16 0
-10 -2.0421904e-16 0
-10 -3.4037157e-18 0
-10 1.978403e-16 0
-10 -2.030366e-16 0
-10 -8.5416704e-18 0
-10 4.0551795e-18 0
-10 2.1114431e-16 0
-10 -2.1143038e-16 0
-10 -7.2977895e-19 0
-10 8.1694733e-18 0
-10 1.9731991e-16 0
-10 -2.0443317e-16 0
-10 1.2305531e-13 0
-10 5.1077862e-11 0
-10 -2.4307187e-06 0
-10 -0.00035292064 0
-10 0.00035292064 0
-10 2.4307187e-06 0
-10 -5.1077882e-11 0
-10 -1.2307148e-13 0
-10 2.2057899e-17 0
-10 -1.4754152e-18 0
-10 -2.9980448e-19 0
-10 -1.0091678e-16 0
-10 2.3722763e-16 0
-10 -2.0420139e-16 0
-10 -3.4237483e-18 0
-10 1.9780115e-16 0
-10 -2.0301144e-16 0
-10 -8.5474646e-18 0
-10 4.0583135e-18 0
-10 2.1114284e-16 0
-10 -2.1142351e-16 0
-10 -7.2996396e-19 0
-10 8.1711138e-18 0
-10 1.9731499e-16 0
-10 -2.044275e-16 0
-10 1.2305531e-13 0
-10 5.1077862e-11 0
-10 -2.4307187e-06 0
-10 -0.00035292064 0
-10 0.00035292064 0
-10 2.4307187e-06 0
-10 -5.1077882e-11 0
-10 -1.2307148e-13 0
-10 2.2067789e-17 0
-10 -1.4898747e-18 0
-10 -3.0165636e-19 0
-10 -1.0089216e-16 0
-10 2.3724449e-16 0
-10 -2.0416649e-16 0
-10 -3.4200512e-18 0
-10 1.9780712e-16 0
-10 -2.0299988e-16 0
-10 -8.543188e-18 0
-10 4.0541677e-18 0
-10 2.111433e-16 0
-10 -2.1143038e-16 0
-10 -7.2977895e-19 0
-10 8.1694733e-18 0
-10 1.9732093e-16 0
-10 -2.0441464e-16 0
-10 1.2305533e-13 0
-10 5.1077862e-11 0
-10 -2.4307187e-06 0
-10 -0.00035292064 0
-10 0.00035292064 0
-10 2.4307187e-06 0
-10 -5.1077882e-11 0
-10 -1.3342711e-13 0
-10 -1.0333967e-14 0
-10 -1.5182711e-18 0
-10 -2.5738834e-19 0
-10 -1.0065224e-16 0
-10 2.3718762e-16 0
-10 -2.0414242e-16 0
-10 -3.2541261e-18 0
-10 1.9806298e-16 0
-10 -2.0249506e-16 0
-10 -8.9594497e-18 0
-10 3.9009414e-18 0
-10 2.109312e-16 0
-10 -2.1138134e-16 0
-10 -7.3066861e-19 0
-10 8.1284137e-18 0
-10 1.9752227e-16 0
-10 -2.043077e-16 0
-10 1.2305579e-13 0
-10 5.1077862e-11 0
-10 -2.4307187e-06 0
-10 -0.00035292064 0
-10 0.00035292064 0
-10 2.4307187e-06 0
-10 -5.1077882e-11 0
-10 -1.2307132e-13 0
-9.9999999 2.1667746e-17 0
-9.9999999 -1.5707361e-18 0
-9.9999999 -2.6221105e-19 0
-9.9999999 -1.0065865e-16 0
-9.9999999 2.3719444e-16 0
-9.9999999 -2.0412368e-16 0
-9.9999999 -3.2441332e-18 0
-9.9999999 1.9804356e-16 0
-9.9999999 -2.0247981e-16 0
-9.9999999 -8.9501501e-18 0
-9.9999999 3.9201363e-18 0
-9.9999999 2.1093018e-16 0
-9.9999999 -2.1137816e-16 0
-9.9999999 -7.3033415e-19 0
-9.9999999 8.1337416e-18 0
-9.9999999 1.9751194e-16 0
-9.9999999 -2.0429039e-16 0
-9.9999999 1.2305578e-13 0
-9.9999999 5.1077862e-11 0
-9.9999999 -2.4307187e-06 0
-9.9999999 -0.00035292064 0
-9.9999999 0.00035292064 0
-9.9999999 2.4307187e-06 0
-9.9999999 -5.1077882e-11 0
-9.9999999 -1.1271589e-13 0
-9.9999999 1.0378027e-14 0
-9.9999999 -1.4397709e-18 0
-9.9999999 -3.261457e-19 0
-9.9999999 -1.0106638e-16 0
-9.9999999 2.373624e-16 0
-9.9999999 -2.0421865e-16 0
-9.9999999 -3.4839771e-18 0
-9.9999999 1.9774034e-16 0
-9.9999999 -2.0335741e-16 0
-9.9999999 -8.1879107e-18 0
-9.9999999 4.0936673e-18 0
-9.9999999 2.1127756e-16 0
-9.9999999 -2.114572e-16 0
-9.9999999 -7.2965556e-19 0
-9.9999999 8.1961738e-18 0
-9.9999999 1.9718658e-16 0
-9.9999999 -2.0442898e-16 0
-9.9999999 1.230551e-13 0
-9.9999999 5.1077862e-11 0
-9.9999999 -2.4307187e-06 0
-9.9999999 -0.00035292064 0
-9.9999999 0.00035292064 0
-9.9999999 2.4307187e-06 0
-9.9999999 -5.1077882e-11 0
-9.9999999 -1.2307139e-13 0
-9.9999999 2.1802546e-17 0
-9.9999999 -1.4842299e-18 0
-9.9999999 -2.7710988e-19 0
-9.9999999 -1.0073976e-16 0
-9.9999999 2.3726569e-16 0
-9.9999999 -2.0416576e-16 0
-9.9999999 -3.2748216e-18 0
-9.9999999 1.9802635e-16 0
-9.9999999 -2.0267833e-16 0
-9.9999999 -8.7636413e-18 0
-9.9999999 3.9168354e-18 0
-9.9999999 2.1100866e-16 0
-9.9999999 -2.1139849e-16 0
-9.9999999 -7.3014914e-19 0
-9.9999999 8.1379442e-18 0
-9.9999999 1.974558e-16 0
-9.9999999 -2.043274e-16 0
-9.9999999 1.2305566e-13 0
-9.9999999 5.1077862e-11 0
-9.9999999 -2.4307187e-06 0
-9.9999999 -0.00035292064 0
-9.9999999 0.00035292064 0
-9.9999999 2.4307187e-06 0
-9.9999999 -5.1077882e-11 0
-9.9999999 -1.2307135e-13 0
-9.9999999 2.1825865e-17 0
-9.9999999 -1.5266618e-18 0
-9.9999999 -2.7548222e-19 0
-9.9999999 -1.0075352e-16 0
-9.9999999 1.0592999e-14 0
-9.9999999 1.0151692e-14 0
-9.9999999 -3.265537e-18 0
-9.9999999 1.9807252e-16 0
-9.9999999 -2.0252306e-16 0
-9.9999999 -8.9520421e-18 0
-9.9999999 3.9039997e-18 0
-9.9999999 2.1094469e-16 0
-9.9999999 -2.1139597e-16 0
-9.9999999 -7.3055729e-19 0
-9.9999999 8.1403985e-18 0
-9.9999999 1.9751165e-16 0
-9.9999999 -2.043084e-16 0
-9.9999999 1.2305578e-13 0
-9.9999999 5.1077862e-11 0
-9.9999999 -2.4307187e-06 0
-9.9999999 -0.00035292064 0
-9.9999999 0.00035292064 0
-9.9999999 2.4307187e-06 0
-9.9999999 -5.1077882e-11 0
-9.9999999 -1.2307156e-13 0
-9.9999999 2.2193534e-17 0
-9.9999999 -1.4702947e-18 0
-9.9999999 -3.1174958e-19 0
-9.9999999 -1.0096363e-16 0
-9.9999999 2.3729294e-16 0
-10 -2.0422582e-16 0
-10 -3.4483234e-18 0
-10 1.9776429e-16 0
-10 -2.0316901e-16 0
-10 -8.364885e-18 0
-10 4.0967664e-18 0
-10 -1.0144613e-14 0
-10 -1.0567279e-14 0
-10 -7.3011697e-19 0
-10 8.2228992e-18 0
-10 1.9715085e-16 0
-10 -2.0446028e-16 0
-10 1.2305503e-13 0
-10 5.1077862e-11 0
-10 -2.4307187e-06 0
-10 -0.00035292064 0
-10 0.00035292064 0
-10 2.4307187e-06 0
-10 -5.1077882e-11 0
-10 -1.2307155e-13 0
-10 2.2284952e-17 0
-10 -1.449061e-18 0
-10 -3.2262919e-19 0
-10 -1.0106576e-16 0
-10 -1.0118528e-14 0
-10 -1.0559938e-14 0
-10 -3.4878623e-18 0
-10 1.9771362e-16 0
-10 -2.0316549e-16 0
-10 -8.4553945e-18 0
-10 4.1315818e-18 0
-10 2.1137306e-16 0
-9.9999999 1.0832806e-15 0
-9.9999999 1.2938393e-15 0
-9.9999999 1.3027602e-15 0
-9.9999999 1.4918371e-15 0
-9.9999999 1.0901104e-15 0
-9.9999999 1.2434977e-13 0
-9.9999999 5.1079156e-11 0
-9.9999999 -2.4307187e-06 0
-9.9999999 -0.00035292064 0
-9.9999999 0.00035292064 0
-9.9999999 2.4307187e-06 0
-9.9999999 -5.1076587e-11 0
-9.9999999 -1.2177694e-13 0
-9.9999999 1.3166205e-15 0
-9.9999999 -1.540186e-18 0
-9.9999999 -3.0507356e-19 0
-9.9999999 -1.0093254e-16 0
-9.9999999 2.3724771e-16 0
-9.9999999 -2.0422274e-16 0
-9.9999999 -3.4383332e-18 0
-9.9999999 1.9789616e-16 0
-9.9999999 -4.0331629e-14 0
-9.9999999 -2.9781366e-14 0
-9.9999999 1.1654475e-14 0
-9.9999999 -1.4346309e-13 0
-9.9999999 1.8728612e-13 0
-9.9999999 2.082083e-13 0
-9.9999999 2.0821725e-13 0
-9.9999999 2.084062e-13 0
-9.9999999 2.0800461e-13 0
-9.9999999 3.3126385e-13 0
-9.9999999 5.128607e-11 0
-9.9999999 -2.4307185e-06 0
-9.9999999 -0.00035292064 0
-9.9999999 0.00035292064 0
-9.9999999 2.4307202e-06 0
-9.9999999 -5.0869674e-11 0
-9.9999999 8.5136824e-14 0
-9.9999999 3.5320008e-13 0
-9.9999999 2.2004501e-14 0
-9.9999999 1.2942833e-15 0
-9.9999999 1.1935456e-15 0
-9.9999999 1.5318077e-15 0
-9.9999999 1.0903198e-15 0
-9.9999999 1.1647034e-14 0
-9.9999999 -1.4347088e-13 0
-9.9999999 1.8569694e-13 0
-9.9999998 2.1695236e-13 0
-9.9999999 2.0790269e-13 0
-9.9999999 -2.1365932e-12 0
-9.9999993 4.8705658e-07 0
-9.9999993 4.870543e-07 0
-9.9999993 4.8705429e-07 0
-9.9999993 4.8705429e-07 0
-9.9999993 4.8705429e-07 0
-9.9999993 4.8705441e-07 0
-9.9999993 4.8710536e-07 0
-9.9999993 -1.9436644e-06 0
-9.9999993 -0.00035243359 0
-9.999992 0.00035292064 0
-9.9999993 2.9177805e-06 0
-9.9999993 4.8700324e-07 0
-9.9999993 4.8705417e-07 0
-9.9999993 4.8705661e-07 0
-9.9999998 -2.1088567e-12 0
-9.9999998 2.0789945e-13 0
-9.9999998 2.1685941e-13 0
-9.9999998 2.1719785e-13 0
-9.9999998 2.1675629e-13 0
-9.9999998 2.0790261e-13 0
-9.9999999 -3.2139292e-12 0
-9.9999993 4.8705779e-07 0
-9.9999993 4.8705573e-07 0
-9.9999993 4.8705568e-07 0
-9.9999993 4.8705572e-07 0
-9.9999993 4.8705605e-07 0
-9.9999993 4.8705589e-07 0
-9.9999993 4.8705589e-07 0
-9.9999993 4.8705589e-07 0
-9.9999993 4.8705589e-07 0
-9.9999993 4.8705602e-07 0
-9.9999993 4.8710697e-07 0
-9.9999993 -1.9436628e-06 0
-9.9999993 -0.00035243358 0
-9.999992 0.00035292064 0
-9.9999993 2.9177897e-06 0
-9.9999993 4.8700485e-07 0
-9.9999993 4.8705577e-07 0
-9.9999993 4.8705587e-07 0
-9.9999993 4.8705554e-07 0
-9.9999993 4.8705569e-07 0
-9.9999993 4.8705569e-07 0
-9.9999993 4.8705569e-07 0
-9.9999993 4.8705569e-07 0
-9.9999993 4.8705562e-07 0
-9.9999993 4.8703998e-07 0
-9.9999991 4.8706896e-07 0
-9.9999991 4.8705314e-07 0
-9.9999991 4.8705308e-07 0
-9.9999991 4.8705311e-07 0
-9.9999991 4.8705311e-07 0
-9.9999991 4.8705308e-07 0
-9.9999991 4.8705285e-07 0
-9.9999991 4.8705322e-07 0
-9.9999991 4.870533e-07 0
-9.9999991 4.8705342e-07 0
-9.9999991 4.8710439e-07 0
-9.9999991 -1.9436654e-06 0
-9.9999991 -0.00035243359 0
-9.9999918 0.00035292062 0
-9.9999991 2.9178004e-06 0
-9.9999991 4.8700231e-07 0
-9.9999991 4.8705319e-07 0
-9.9999991 4.8705331e-07 0
-9.9999991 4.8705331e-07 0
-9.9999991 4.8705331e-07 0
-9.9999991 4.8705331e-07 0
-9.9999991 4.8705331e-07 0
-9.9999991 4.8705331e-07 0
-9.9999991 4.8705331e-07 0
-9.9999991 4.8705358e-07 0
-9.9999991 4.8705582e-07 0
-9.9999991 4.8705471e-07 0
-9.9999991 4.8705471e-07 0
-9.9999991 4.8705471e-07 0
-9.9999991 4.8705471e-07 0
-9.9999991 4.870547e-07 0
-9.9999991 4.8705213e-07 0
-9.999998 1.4611658e-06 0
-9.999998 1.4611632e-06 0
-9.9999979 1.4611633e-06 0
-9.9999979 1.4612143e-06 0
-9.9999979 -9.6955541e-07 0
-9.9999979 -0.00035145947 0
-9.999976 0.00035292062 0
-9.9999979 3.891916e-06 0
-9.9999979 1.4611123e-06 0
-9.9999979 1.4611631e-06 0
-9.9999979 1.4611632e-06 0
-9.9999979 1.4611632e-06 0
-9.9999979 1.4611632e-06 0
-9.9999979 1.4611632e-06 0
-9.9999979 1.4611631e-06 0
-9.9999979 1.4611634e-06 0
-9.9999979 1.4611634e-06 0
-9.9999979 1.4611634e-06 0
-9.9999979 1.4611634e-06 0
-9.9999979 1.4611634e-06 0
-9.9999979 1.4611634e-06 0
-9.9999979 1.4611634e-06 0
-9.9999979 1.4611634e-06 0
-9.9999979 1.4611634e-06 0
-9.9999979 1.4611635e-06 0
-9.9999979 1.4611639e-06 0
-9.9999979 1.4611637e-06 0
-9.9999979 1.4611638e-06 0
-9.9999979 1.4612147e-06 0
-9.9999979 -9.6955495e-07 0
-9.9999979 -0.00035145947 0
-9.9999785 0.00035292075 0
-10 3.8919323e-06 0
-10 1.4611124e-06 0
-10 1.4611641e-06 0
-10 1.4611643e-06 0
-10 1.4611643e-06 0
-10 1.4611643e-06 0
-10 1.4611647e-06 0
-10 1.4611617e-06 0
-9.9999998 1.9482198e-06 0
-9.9999998 1.9482178e-06 0
-9.9999998 1.9482178e-06 0
-9.9999998 1.9482178e-06 0
-9.9999998 1.9482178e-06 0
-9.9999998 1.9482178e-06 0
-9.9999998 1.9482178e-06 0
-9.9999998 1.9482178e-06 0
-9.9999998 1.9482178e-06 0
-9.9999998 1.9482178e-06 0
-9.9999998 1.9482178e-06 0
-9.9999998 1.948219e-06 0
-9.9999998 1.9482056e-06 0
-9.9999998 1.9482558e-06 0
-9.9999998 -4.8251609e-07 0
-9.9999998 -0.00035097253 0
-10.000302 0.00033343823 0
-10.00035 4.3793562e-06 0
-10.00035 1.9481814e-06 0
-10.00035 2.4352989e-06 0
-10.00035 2.4352928e-06 0
-10.00035 2.4352928e-06 0
-10.00035 2.4352928e-06 0
-10.00035 2.4352997e-06 0
-10.000351 1.4611672e-06 0
-10.000351 1.4611743e-06 0
-10.000351 1.4611742e-06 0
-10.000351 1.4611742e-06 0
-10.000351 1.4611742e-06 0
-10.000351 1.4611742e-06 0
-10.000351 1.4611742e-06 0
-10.000351 1.4611742e-06 0
-10.000351 1.4611742e-06 0
-10.000351 1.4611742e-06 0
-10.000351 1.4611742e-06 0
-10.000351 1.4611743e-06 0
-10.000351 1.4611923e-06 0
-10.000351 9.741034e-07 0
-10.000343 9.7415179e-07 0
-10.000343 -9.6990017e-07 0
-10.000323 -0.00033197708 0
9.9996814 0.00032769918 0
9.9996669 2.9224062e-06 0
9.9996667 4.5658561e-07 0
9.9996667 4.9102336e-07 0
9.9996667 4.9102304e-07 0
9.9996667 4.9102304e-07 0
9.9996667 4.9102304e-07 0
9.9996667 4.9102304e-07 0
9.9996667 4.9102304e-07 0
9.9996667 4.9102304e-07 0
9.9996667 4.9102304e-07 0
9.9996667 4.9102304e-07 0
9.9996667 4.9103444e-07 0
9.9996667 4.9102031e-07 0
9.9996667 4.9100956e-07 0
9.9996663 5.4020784e-07 0
9.9996663 5.4020753e-07 0
9.9996663 5.4020753e-07 0
9.9996663 5.4020753e-07 0
9.9996663 5.4020753e-07 0
9.9996663 5.4020753e-07 0
9.9996663 5.4020639e-07 0
9.9996663 5.4025552e-07 0
9.9996663 -1.8908573e-06 0
9.9996826 -0.00033511179 0
9.99991 0.00035097239 0
9.9999611 7.7884919e-06 0
9.9999528 5.8446336e-06 0
9.9999528 5.8446747e-06 0
9.9999528 5.8446747e-06 0
9.9999528 5.8446747e-06 0
9.9999528 5.8446747e-06 0
9.9999528 5.8446747e-06 0
9.9999528 5.8446748e-06 0
9.9999528 5.8446747e-06 0
9.9999528 5.8446743e-06 0
9.9999528 5.8446745e-06 0
9.9999528 5.8446928e-06 0
9.9999611 5.3576081e-06 0
9.9999523 5.357623e-06 0
9.9999523 5.3576231e-06 0
9.9999523 5.3576231e-06 0
9.9999523 5.3576231e-06 0
9.9999523 5.3576231e-06 0
9.9999523 5.3576231e-06 0
9.9999523 5.3576231e-06 0
9.9999523 5.3576242e-06 0
9.9999445 5.3576753e-06 0
9.9999445 2.926872e-06 0
9.999945 -0.00034701515 0
9.9999521 0.00035243353 0
9.9999886 5.3531201e-06 0
9.9999886 2.9222873e-06 0
9.9999886 2.9223332e-06 0
9.9999886 2.9223333e-06 0
9.9999886 2.922333e-06 0
9.9999886 2.922333e-06 0
9.9999886 2.922333e-06 0
9.9999886 2.9223335e-06 0
9.999989 2.4352772e-06 0
9.999989 2.4352772e-06 0
9.9999808 2.9223332e-06 0
9.9999808 2.9223222e-06 0
9.9999808 2.9223313e-06 0
9.9999808 2.922341e-06 0
9.9999808 2.9223311e-06 0
9.9999808 2.9223311e-06 0
9.9999808 2.9223311e-06 0
9.9999808 2.9223311e-06 0
9.9999808 2.9223311e-06 0
9.9999808 2.9223311e-06 0
9.9999808 2.9223326e-06 0
9.9999808 2.9223834e-06 0
9.9999808 4.916114e-07 0
9.9999808 -0.00034999831 0
9.9999516 0.00035194647 0
9.9999808 5.3531234e-06 0
9.9999808 2.9222762e-06 0
9.9999808 2.9223268e-06 0
9.9999884 2.9223269e-06 0
9.9999884 2.922327e-06 0
9.9999884 2.9223271e-06 0
9.9999884 2.922327e-06 0
9.9999884 2.9223265e-06 0
9.9999884 2.9223255e-06 0
9.9999884 2.9223403e-06 0