# vtk DataFile Version 4.0
hesp visualization file
ASCII
DATASET UNSTRUCTURED_GRID
POINTS 1250 double
30.513423 1.3854858 4
30.393546 2.1642801 4
30.377908 3.3502324 4
30.37788 4.4726801 4
30.377876 5.5952206 4
30.377878 6.7176444 4
30.377876 7.8401385 4
30.377878 8.9625628 4
30.377877 10.085041 4
30.377876 11.207523 4
30.377873 12.330043 4
30.377897 13.452073 4
30.377894 14.574576 4
30.377904 15.696872 4
30.377903 16.819344 4
30.377664 17.946669 4
30.377665 19.069112 4
30.377662 20.191641 4
30.377662 21.31411 4
30.377713 22.435417 4
30.377712 23.557899 4
30.377713 24.680342 4
30.377722 25.802589 4
30.377769 26.924387 4
30.382129 28.019729 4
31.040886 0.86520259 4
31.098707 2.3143346 4
30.948758 3.3825213 4
30.948782 4.5041483 4
30.948787 5.6265429 4
30.948785 6.7490347 4
30.948787 7.8714747 4
30.948785 8.9939628 4
30.948786 10.116414 4
30.948787 11.238865 4
30.94879 12.361286 4
30.948762 13.484049 4
30.948765 14.606483 4
30.948755 15.729062 4
30.948756 16.851517 4
30.949002 17.97051 4
30.949001 19.092983 4
30.949004 20.215398 4
30.949004 21.337856 4
30.948951 22.461159 4
30.948952 23.58361 4
30.948949 24.706083 4
30.948937 25.828694 4
30.948892 26.952157 4
30.944746 28.113642 4
31.737706 1.3252906 4
31.708075 2.217854 4
31.704121 3.3603632 4
31.7041 4.4840241 4
31.704099 5.6065148 4
31.7041 6.7289684 4
31.704099 7.8514347 4
31.7041 8.9738917 4
31.704099 10.096356 4
31.704099 11.218818 4
31.704099 12.341288 4
31.7041 13.46369 4
31.7041 14.586157 4
31.704101 15.708594 4
31.704101 16.831058 4
31.70409 17.954241 4
31.70409 19.076703 4
31.70409 20.199175 4
31.70409 21.321637 4
31.704093 22.443899 4
31.704093 23.566361 4
31.704093 24.688823 4
31.704093 25.811256 4
31.70411 26.932747 4
31.706937 28.017393 4
32.97744 0.89066345 4
32.418439 2.264057 4
32.275846 3.3720385 4
32.275869 4.4936468 4
32.27587 5.6160904 4
32.27587 6.7385572 4
32.27587 7.8610169 4
32.275869 8.9834818 4
32.27587 10.105943 4
32.275869 11.228405 4
32.27587 12.350862 4
32.275868 13.473358 4
32.275865 14.595817 4
32.275868 15.718293 4
32.275865 16.840754 4
32.275876 17.962839 4
32.275876 19.085301 4
32.275876 20.207758 4
32.275876 21.33022 4
32.275873 22.452793 4
32.275873 23.575255 4
32.275873 24.697717 4
32.275872 25.820196 4
32.275853 26.943364 4
32.27281 28.092365 4
33.110588 1.2127834 4
33.032664 2.2417759 4
33.030681 3.3666373 4
33.030681 4.4892888 4
33.030681 5.6117534 4
33.030681 6.7342154 4
33.030681 7.8566775 4
33.030681 8.9791395 4
33.030681 10.101602 4
33.030681 11.224064 4
33.030681 12.346526 4
33.030681 13.468988 4
33.030681 14.59145 4
33.030681 15.713912 4
33.030681 16.836374 4
33.030681 17.958812 4
33.030681 19.081274 4
33.030681 20.203736 4
33.030681 21.326198 4
33.030681 22.44866 4
33.030681 23.571122 4
33.030681 24.693584 4
33.030681 25.816046 4
33.030681 26.938332 4
33.030746 28.05378 4
33.887884 1.1114781 4
33.886575 2.2469646 4
33.602192 3.3677991 4
33.602178 4.4901592 4
33.602178 5.6126199 4
33.602178 6.7350819 4
33.602178 7.857544 4
33.602178 8.980006 4
33.602178 10.102468 4
33.602178 11.22493 4
33.602178 12.347392 4
33.602178 13.469854 4
33.602178 14.592316 4
33.602178 15.714778 4
33.602178 16.83724 4
33.602178 17.959716 4
33.602178 19.082178 4
33.602178 20.20464 4
33.602178 21.327102 4
33.602178 22.449564 4
33.602178 23.572026 4
33.602178 24.694488 4
33.602178 25.81695 4
33.602177 26.939504 4
33.602109 28.065023 4
34.357183 1.1230026 4
34.357184 2.2449273 4
34.35723 3.3673857 4
34.35723 4.4898482 4
34.35723 5.6123102 4
34.35723 6.7347723 4
34.35723 7.8572343 4
34.35723 8.9796964 4
34.35723 10.102158 4
34.35723 11.22462 4
34.35723 12.347083 4
34.35723 13.469545 4
34.35723 14.592007 4
34.35723 15.714469 4
34.35723 16.836931 4
34.35723 17.959393 4
34.35723 19.081855 4
34.35723 20.204317 4
34.35723 21.326779 4
34.35723 22.449241 4
34.35723 23.571703 4
34.35723 24.694165 4
34.35723 25.816627 4
34.35723 26.939086 4
34.357231 28.06101 4
35.479696 1.1230027 4
35.479696 2.2449275 4
35.479696 3.3673861 4
35.479696 4.4898482 4
35.479696 5.6123102 4
35.479696 6.7347723 4
35.479696 7.8572343 4
35.479696 8.9796964 4
35.479696 10.102158 4
35.479696 11.22462 4
35.479696 12.347083 4
35.479696 13.469545 4
35.479696 14.592007 4
35.479696 15.714469 4
35.479696 16.836931 4
35.479696 17.959393 4
35.479696 19.081855 4
35.479696 20.204317 4
35.479696 21.326779 4
35.479696 22.449241 4
35.479696 23.571703 4
35.479696 24.694165 4
35.479696 25.816627 4
35.479696 26.939086 4
35.479696 28.061011 4
36.602158 1.1230027 4
36.602158 2.2449275 4
36.602158 3.3673861 4
36.602158 4.4898482 4
36.602158 5.6123102 4
36.602158 6.7347723 4
36.602158 7.8572343 4
36.602158 8.9796964 4
36.602158 10.102158 4
36.602158 11.22462 4
36.602158 12.347083 4
36.602158 13.469545 4
36.602158 14.592007 4
36.602158 15.714469 4
36.602158 16.836931 4
36.602158 17.959393 4
36.602158 19.081855 4
36.602158 20.204317 4
36.602158 21.326779 4
36.602158 22.449241 4
36.602158 23.571703 4
36.602158 24.694165 4
36.602158 25.816627 4
36.602158 26.939086 4
36.602158 28.061011 4
37.72462 1.1230027 4
37.72462 2.2449275 4
37.72462 3.3673861 4
37.72462 4.4898482 4
37.72462 5.6123102 4
37.72462 6.7347723 4
37.72462 7.8572343 4
37.72462 8.9796964 4
37.72462 10.102158 4
37.72462 11.22462 4
37.72462 12.347083 4
37.72462 13.469545 4
37.72462 14.592007 4
37.72462 15.714469 4
37.72462 16.836931 4
37.72462 17.959393 4
37.72462 19.081855 4
37.72462 20.204317 4
37.72462 21.326779 4
37.72462 22.449241 4
37.72462 23.571703 4
37.72462 24.694165 4
37.72462 25.816627 4
37.72462 26.939086 4
37.72462 28.061011 4
38.847083 1.1230027 4
38.847083 2.2449275 4
38.847083 3.3673861 4
38.847083 4.4898482 4
38.847083 5.6123102 4
38.847083 6.7347723 4
38.847083 7.8572343 4
38.847083 8.9796964 4
38.847083 10.102158 4
38.847083 11.22462 4
38.847083 12.347083 4
38.847083 13.469545 4
38.847083 14.592007 4
38.847083 15.714469 4
38.847083 16.836931 4
38.847083 17.959393 4
38.847083 19.081855 4
38.847083 20.204317 4
38.847083 21.326779 4
38.847083 22.449241 4
38.847083 23.571703 4
38.847083 24.694165 4
38.847083 25.816627 4
38.847083 26.939086 4
38.847083 28.061011 4
39.969545 1.1230027 4
39.969545 2.2449275 4
39.969545 3.3673861 4
39.969545 4.4898482 4
39.969545 5.6123102 4
39.969545 6.7347723 4
39.969545 7.8572343 4
39.969545 8.9796964 4
39.969545 10.102158 4
39.969545 11.22462 4
39.969545 12.347083 4
39.969545 13.469545 4
39.969545 14.592007 4
39.969545 15.714469 4
39.969545 16.836931 4
39.969545 17.959393 4
39.969545 19.081855 4
39.969545 20.204317 4
39.969545 21.326779 4
39.969545 22.449241 4
39.969545 23.571703 4
39.969545 24.694165 4
39.969545 25.816627 4
39.969545 26.939086 4
39.969545 28.061011 4
41.092007 1.1230027 4
41.092007 2.2449275 4
41.092007 3.3673861 4
41.092007 4.4898482 4
41.092007 5.6123102 4
41.092007 6.7347723 4
41.092007 7.8572343 4
41.092007 8.9796964 4
41.092007 10.102158 4
41.092007 11.22462 4
41.092007 12.347083 4
41.092007 13.469545 4
41.092007 14.592007 4
41.092007 15.714469 4
41.092007 16.836931 4
41.092007 17.959393 4
41.092007 19.081855 4
41.092007 20.204317 4
41.092007 21.326779 4
41.092007 22.449241 4
41.092007 23.571703 4
41.092007 24.694165 4
41.092007 25.816627 4
41.092007 26.939086 4
41.092007 28.061011 4
42.214469 1.1230027 4
42.214469 2.2449275 4
42.214469 3.3673861 4
42.214469 4.4898482 4
42.214469 5.6123102 4
42.214469 6.7347723 4
42.214469 7.8572343 4
42.214469 8.9796964 4
42.214469 10.102158 4
42.214469 11.22462 4
42.214469 12.347083 4
42.214469 13.469545 4
42.214469 14.592007 4
42.214469 15.714469 4
42.214469 16.836931 4
42.214469 17.959393 4
42.214469 19.081855 4
42.214469 20.204317 4
42.214469 21.326779 4
42.214469 22.449241 4
42.214469 23.571703 4
42.214469 24.694165 4
42.214469 25.816627 4
42.214469 26.939086 4
42.214469 28.061011 4
43.336931 1.1230027 4
43.336931 2.2449275 4
43.336931 3.3673861 4
43.336931 4.4898482 4
43.336931 5.6123102 4
43.336931 6.7347723 4
43.336931 7.8572343 4
43.336931 8.9796964 4
43.336931 10.102158 4
43.336931 11.22462 4
43.336931 12.347083 4
43.336931 13.469545 4
43.336931 14.592007 4
43.336931 15.714469 4
43.336931 16.836931 4
43.336931 17.959393 4
43.336931 19.081855 4
43.336931 20.204317 4
43.336931 21.326779 4
43.336931 22.449241 4
43.336931 23.571703 4
43.336931 24.694165 4
43.336931 25.816627 4
43.336931 26.939086 4
43.336931 28.061011 4
44.459393 1.1230027 4
44.459393 2.2449275 4
44.459393 3.3673861 4
44.459393 4.4898482 4
44.459393 5.6123102 4
44.459393 6.7347723 4
44.459393 7.8572343 4
44.459393 8.9796964 4
44.459393 10.102158 4
44.459393 11.22462 4
44.459393 12.347083 4
44.459393 13.469545 4
44.459393 14.592007 4
44.459393 15.714469 4
44.459393 16.836931 4
44.459393 17.959393 4
44.459393 19.081855 4
44.459393 20.204317 4
44.459393 21.326779 4
44.459393 22.449241 4
44.459393 23.571703 4
44.459393 24.694165 4
44.459393 25.816627 4
44.459393 26.939086 4
44.459393 28.061011 4
45.581855 1.1230027 4
45.581855 2.2449275 4
45.581855 3.3673861 4
45.581855 4.4898482 4
45.581855 5.6123102 4
45.581855 6.7347723 4
45.581855 7.8572343 4
45.581855 8.9796964 4
45.581855 10.102158 4
45.581855 11.22462 4
45.581855 12.347083 4
45.581855 13.469545 4
45.581855 14.592007 4
45.581855 15.714469 4
45.581855 16.836931 4
45.581855 17.959393 4
45.581855 19.081855 4
45.581855 20.204317 4
45.581855 21.326779 4
45.581855 22.449241 4
45.581855 23.571703 4
45.581855 24.694165 4
45.581855 25.816627 4
45.581855 26.939086 4
45.581855 28.061011 4
46.704317 1.1230027 4
46.704317 2.2449275 4
46.704317 3.3673861 4
46.704317 4.4898482 4
46.704317 5.6123102 4
46.704317 6.7347723 4
46.704317 7.8572343 4
46.704317 8.9796964 4
46.704317 10.102158 4
46.704317 11.22462 4
46.704317 12.347083 4
46.704317 13.469545 4
46.704317 14.592007 4
46.704317 15.714469 4
46.704317 16.836931 4
46.704317 17.959393 4
46.704317 19.081855 4
46.704317 20.204317 4
46.704317 21.326779 4
46.704317 22.449241 4
46.704317 23.571703 4
46.704317 24.694165 4
46.704317 25.816627 4
46.704317 26.939086 4
46.704317 28.061011 4
47.826779 1.1230027 4
47.826779 2.2449275 4
47.826779 3.3673861 4
47.826779 4.4898482 4
[...]
POINT_DATA 1250
SCALARS m double
LOOKUP_TABLE default
1
1
1
1
1
1
1
1
1
1
1
1
1
1
1
1
1
1
1
1
1
1
1
1
1
1
1
1
1
1
1
1
1
1
1
1
1
1
1
1
1
1
1
1
1
1
1
1
1
1
1
1
1
1
1
1
1
1
1
1
1
1
1
1
1
1
1
1
1
1
1
1
1
1
1
1
1
1
1
1
1
1
1
1
1
1
1
1
1
1
1
1
1
1
1
1
1
1
1
1
1
1
1
1
1
1
1
1
1
1
1
1
1
1
1
1
1
1
1
1
1
1
1
1
1
1
1
1
1
1
1
1
1
1
1
1
1
1
1
1
1
1
1
1
1
1
1
1
1
1
1
1
1
1
1
1
1
1
1
1
1
1
1
1
1
1
1
1
1
1
1
1
1
1
1
1
1
1
1
1
1
1
1
1
1
1
1
1
1
1
1
1
1
1
1
1
1
1
1
1
1
1
1
1
1
1
1
1
1
1
1
1
1
1
1
1
1
1
1
1
1
1
1
1
1
1
1
1
1
1
1
1
1
1
1
1
1
1
1
1
1
1
1
1
1
1
1
1
1
1
1
1
1
1
1
1
1
1
1
1
1
1
1
1
1
1
1
1
1
1
1
1
1
1
1
1
1
1
1
1
1
1
1
1
1
1
1
1
1
1
1
1
1
1
1
1
1
1
1
1
1
1
1
1
1
1
1
1
1
1
1
1
1
1
1
1
1
1
1
1
1
1
1
1
1
1
1
1
1
1
1
1
1
1
1
1
1
1
1
1
1
1
1
1
1
1
1
1
1
1
1
1
1
1
1
1
1
1
1
1
1
1
1
1
1
1
1
1
1
1
1
1
1
1
1
1
1
1
1
1
1
1
1
1
1
1
1
1
1
1
1
1
1
1
1
1
1
1
1
1
1
1
1
1
1
1
1
1
1
1
1
1
1
1
1
1
1
1
1
1
1
1
1
1
1
1
1
1
1
1
1
1
1
1
1
1
1
1
1
1
1
1
1
1
1
1
1
1
1
1
1
1
1
1
1
1
1
1
1
1
1
1
1
1
1
1
1
1
1
1
1
1
1
1
1
1
1
1
1
1
1
1
1
1
1
1
1
1
1
1
1
1
1
1
1
1
1
1
1
1
1
1
1
1
1
1
1
1
1
1
1
1
1
1
1
1
1
1
1
1
1
1
1
1
1
1
1
1
1
1
1
1
1
1
1
1
1
1
1
1
1
1
1
1
1
1
1
1
1
1
1
1
1
1
1
1
1
1
1
1
1
1
1
1
1
1
1
1
1
1
1
1
1
1
1
1
1
1
1
1
1
1
1
1
1
1
1
1
1
1
1
1
1
1
1
1
1
1
1
1
1
1
1
1
1
1
1
1
1
1
1
1
1
1
1
1
1
1
1
1
1
1
1
1
1
1
1
1
1
1
1
1
1
1
1
1
1
1
1
1
1
1
1
1
1
1
1
1
1
1
1
1
1
1
1
1
1
1
1
1
1
1
1
1
1
1
1
1
1
1
1
1
1
1
1
1
1
1
1
1
1
1
1
1
1
1
1
1
1
1
1
1
1
1
1
1
1
1
1
1
1
1
1
1
1
1
1
1
1
1
1
1
1
1
1
1
1
1
1
1
1
1
1
1
1
1
1
1
1
1
1
1
1
1
1
1
1
1
1
1
1
1
1
1
1
1
1
1
1
1
1
1
1
1
1
1
1
1
1
1
1
1
1
1
1
1
1
1
1
1
1
1
1
1
1
1
1
1
1
1
1
1
1
1
1
1
1
1
1
1
1
1
1
1
1
1
1
1
1
1
1
1
1
1
1
1
1
1
1
1
1
1
1
1
1
1
1
1
1
1
1
1
1
1
1
1
1
1
1
1
1
1
1
1
1
1
1
1
1
1
1
1
1
1
1
1
1
1
1
1
1
1
1
1
1
1
1
1
1
1
1
1
1
1
1
1
1
1
1
1
1
1
1
1
1
1
1
1
1
1
1
1
1
1
1
1
1
1
1
1
1
1
1
1
1
1
1
1
1
1
1
1
1
1
1
1
1
1
1
1
1
1
1
1
1
1
1
1
1
1
1
1
1
1
1
1
1
1
1
1
1
1
1
1
1
1
1
1
1
1
1
1
1
1
1
1
1
1
1
1
1
1
1
1
1
1
1
1
1
1
1
1
1
1
1
1
1
1
1
1
1
1
1
1
1
1
1
1
1
1
1
1
1
1
1
1
1
1
1
1
1
1
1
1
1
1
1
1
1
1
1
1
1
1
1
1
1
1
1
1
1
1
1
1
1
1
1
1
1
1
1
1
1
1
1
1
1
1
1
1
1
1
1
1
1
1
1
1
1
1
1
1
1
1
1
1
1
1
1
1
1
1
1
1
1
1
1
1
1
1
1
1
1
1
1
1
1
1
1
1
1
1
1
1
1
1
1
1
1
1
1
1
1
1
1
1
1
1
1
1
1
1
1
1
1
1
1
1
1
1
1
1
1
1
1
1
1
1
1
1
1
1
1
1
1
1
1
1
1
1
1
1
1
1
1
1
1
1
1
1
1
1
1
1
1
1
1
1
1
1
1
1
1
1
1
1
1
1
1
1
1
1
1
1
1
1
1
1
1
1
1
1
1
1
1
1
1
1
1
1
1
1
1
1
1
1
1
1
1
1
1
1
1
1
1
1
1
1
1
1
1
1
1
1
1
1
1
1
1
1
1
1
1
1
1
1
1
1
1
1
1
1
1
1
1
1
1
1
1
1
1
1
1
1
1
1
1
1
1
1
1
1
1
1
1
1
1
1
1
1
1
1
1
1
1
1
1
1
1
1
VECTORS v double
-5.5043207 9.3337479 0
-9.6661724 -2.8504841 0
-9.9831287 -0.71892426 0
-9.9843707 -0.70782791 0
-9.9845877 -0.70456412 0
-9.9844869 -0.70611157 0
-9.984567 -0.70485398 0
-9.9844726 -0.70633405 0
-9.9845124 -0.70571007 0
-9.9845599 -0.70493694 0
-9.984704 -0.70267991 0
-9.9836102 -0.71967289 0
-9.9837154 -0.71805742 0
-9.9832858 -0.72461327 0
-9.9833123 -0.72421589 0
-9.9943394 -0.53181947 0
-9.9943053 -0.53255855 0
-9.994434 -0.52990499 0
-9.9944455 -0.5296621 0
-9.992113 -0.57557622 0
-9.9921504 -0.57483137 0
-9.9921139 -0.57557133 0
-9.991669 -0.58400934 0
-9.9895399 -0.61760995 0
-9.7948722 -1.9603221 0
8.8410379 -9.0902314 0
12.177654 2.6691379 0
9.9837443 0.68858048 0
9.9849024 0.66425984 0
9.9851211 0.66116234 0
9.9850189 0.66258033 0
9.9851006 0.66147753 0
9.9850043 0.66277746 0
9.9850449 0.66223146 0
9.9850941 0.66160136 0
9.9852408 0.65960794 0
9.9841175 0.67458369 0
9.9842245 0.67316452 0
9.9837874 0.67897272 0
9.983815 0.67861339 0
9.9949698 0.50750248 0
9.9949342 0.50810331 0
9.9950646 0.50576226 0
9.9950762 0.50556006 0
9.9927078 0.54670056 0
9.992747 0.5460938 0
9.9927003 0.54669669 0
9.9922385 0.55412933 0
9.9901244 0.59297737 0
9.7986523 2.1311381 0
-9.5018776 3.8922157 0
-9.9768224 -0.86398413 0
-10.003446 -0.27307171 0
-10.004454 -0.22568336 0
-10.004475 -0.22457788 0
-10.004469 -0.22489442 0
-10.004472 -0.22473721 0
-10.004469 -0.22492633 0
-10.00447 -0.22485073 0
-10.00447 -0.22485078 0
-10.004476 -0.22453967 0
-10.004433 -0.22681335 0
-10.004438 -0.22660709 0
-10.004419 -0.2275448 0
-10.004422 -0.2274768 0
-10.004896 -0.20078148 0
-10.004897 -0.20078145 0
-10.004903 -0.2004221 0
-10.004903 -0.20041264 0
-10.004774 -0.20790974 0
-10.004774 -0.2079097 0
-10.004774 -0.20790865 0
-10.004755 -0.2090261 0
-10.003984 -0.24755551 0
-9.8730763 -1.7328907 0
3.9341137 -13.92056 0
10.876637 0.74726825 0
10.005605 0.2365588 0
10.006623 0.19439523 0
10.006644 0.19344781 0
10.006638 0.19370586 0
10.00664 0.19357769 0
10.006636 0.19373188 0
10.006638 0.19367024 0
10.006638 0.19367027 0
10.006644 0.19341667 0
10.006595 0.19527034 0
10.006591 0.19510245 0
10.006581 0.19586672 0
10.006573 0.19581057 0
10.007069 0.17449757 0
10.007067 0.17449702 0
10.007073 0.17420404 0
10.007073 0.17419645 0
10.006939 0.18030868 0
10.006939 0.18030877 0
10.006939 0.18030788 0
10.006919 0.18121891 0
10.006118 0.2157986 0
9.8721738 1.5393017 0
0.82018079 10.992094 0
-9.9993902 -0.081714675 0
-10.005506 -0.027972847 0
-10.005512 -0.020966335 0
-10.005513 -0.02087363 0
-10.005513 -0.020873625 0
-10.005513 -0.020873626 0
-10.005513 -0.020873625 0
-10.005513 -0.020873626 0
-10.005513 -0.020873626 0
-10.005513 -0.020873634 0
-10.005513 -0.020873543 0
-10.005513 -0.020873985 0
-10.005513 -0.020873496 0
-10.005513 -0.020873037 0
-10.005511 -0.021784129 0
-10.005511 -0.021784059 0
-10.005511 -0.021784061 0
-10.005511 -0.021784065 0
-10.005511 -0.021783864 0
-10.005511 -0.021783867 0
-10.005511 -0.021783769 0
-10.005511 -0.021782661 0
-10.005497 -0.028249776 0
-10.002486 -0.27414163 0
11.205497 -0.37271681 0
11.208987 0.066583813 0
10.00762 0.022808771 0
10.007458 0.017094774 0
10.007458 0.01701961 0
10.007458 0.017019606 0
10.007458 0.017019605 0
10.007458 0.017019606 0
10.007458 0.017019606 0
10.007458 0.017019606 0
10.007458 0.01701961 0
10.007458 0.017019551 0
10.007458 0.017019909 0
10.007458 0.017019518 0
10.007458 0.017019169 0
10.007456 0.01776176 0
10.007456 0.01776173 0
10.007456 0.01776173 0
10.007456 0.01776173 0
10.007456 0.017761618 0
10.007456 0.017761618 0
10.007456 0.017761538 0
10.007456 0.017760793 0
10.007441 0.022999437 0
10.004382 0.21749168 0
-10.01189 0.0029200842 0
-10.011715 2.2591877e-05 0
-10.000688 -3.4183105e-05 0
-10.000671 -4.1582621e-07 0
-10.000671 1.5896155e-07 0
-10.000671 1.5908966e-07 0
-10.000671 1.590896e-07 0
-10.000671 1.5909071e-07 0
-10.000671 1.5909023e-07 0
-10.000671 1.5909061e-07 0
-10.000671 1.5908648e-07 0
-10.000671 1.5909554e-07 0
-10.000671 1.5909699e-07 0
-10.000671 1.5908592e-07 0
-10.000671 1.5873416e-07 0
-10.000671 1.6628611e-07 0
-10.000671 1.6594961e-07 0
-10.000671 1.6593703e-07 0
-10.000671 1.659293e-07 0
-10.000671 1.6596188e-07 0
-10.000671 1.6595582e-07 0
-10.000671 1.6594728e-07 0
-10.000671 1.9439755e-07 0
-10.000671 -1.8547063e-05 0
-10.000655 -0.0031067201 0
-10.000009 0.0030924168 0
-10.000009 1.7340559e-05 0
-10.000004 -8.2906683e-07 0
-10.000003 -1.0583138e-10 0
-10.000003 -1.6968068e-11 0
-10.000003 -1.691682e-11 0
-10.000003 -1.6916876e-11 0
-10.000003 -1.6917768e-11 0
-10.000003 -1.6914812e-11 0
-10.000003 -1.6918684e-11 0
-10.000003 -1.6916547e-11 0
-10.000003 -1.6915848e-11 0
-10.000003 -1.691675e-11 0
-10.000003 -1.691688e-11 0
-10.000003 -1.9869631e-11 0
-10.000003 -1.5027108e-11 0
-10.000003 -1.7656514e-11 0
-10.000003 -1.7654494e-11 0
-10.000003 -1.7653982e-11 0
-10.000003 -1.7653258e-11 0
-10.000003 -1.7718521e-11 0
-10.000003 5.0720336e-11 0
-10.000003 3.3218545e-08 0
-10.000003 -1.8124728e-05 0
-10.000002 -0.0030916478 0
-10 0.0030912332 0
-10 1.8124102e-05 0
-10 -3.3254922e-08 0
-10 -6.7993939e-11 0
-10 6.311974e-14 0
-10 9.4668464e-17 0
-10 1.716036e-17 0
-10 -8.633466e-16 0
-10 2.095535e-15 0
-10 -1.7669441e-15 0
-10 -1.0306047e-17 0
-10 1.7504684e-15 0
-10 -1.7569692e-15 0
-10 -5.4236768e-17 0
-10 5.5515815e-17 0
-10 1.8678206e-15 0
-10 -1.8299407e-15 0
-10 1.411893e-17 0
-10 9.196369e-17 0
-10 1.6602621e-15 0
-10 -6.4344593e-14 0
-10 6.8373361e-11 0
-10 3.3255282e-08 0
-10 -1.8124102e-05 0
-10 -0.0030912332 0
-10 0.0030912332 0
-10 1.8124102e-05 0
-10 -3.3255284e-08 0
-10 -6.8371522e-11 0
-10 6.5380402e-14 0
-10 1.951395e-16 0
-10 -2.7775566e-18 0
-10 -8.8349275e-16 0
-10 2.0757105e-15 0
-10 -1.7867256e-15 0
-10 -3.0528957e-17 0
-10 1.7300459e-15 0
-10 -1.7774133e-15 0
-10 -7.4238391e-17 0
-10 3.5990372e-17 0
-10 1.8478965e-15 0
-10 -1.8502551e-15 0
-10 -6.4855076e-18 0
-10 7.1613846e-17 0
-10 1.6392889e-15 0
-10 -6.4365697e-14 0
-10 6.8373337e-11 0
-10 3.3255281e-08 0
-10 -1.8124102e-05 0
-10 -0.0030912332 0
-10 0.0030912332 0
-10 1.8124102e-05 0
-10 -3.325528e-08 0
-10 -7.3927078e-11 0
-10 -5.4897618e-12 0
-10 1.9770083e-15 0
-10 6.2402182e-18 0
-10 -8.8215167e-16 0
-10 2.0757956e-15 0
-10 -1.7865991e-15 0
-10 -2.935887e-17 0
-10 1.731807e-15 0
-10 -1.7747803e-15 0
-10 -7.6158931e-17 0
-10 3.5116028e-17 0
-10 1.8468196e-15 0
-10 -1.8503191e-15 0
-10 -6.0908513e-18 0
-10 8.8043935e-17 0
-10 1.6447989e-15 0
-10 -6.4376687e-14 0
-10 6.8373339e-11 0
-10 3.3255281e-08 0
-10 -1.8124102e-05 0
-10 -0.0030912332 0
-9.9999999 0.0030912332 0
-9.9999999 1.8124102e-05 0
-9.9999999 -3.3255281e-08 0
-9.9999999 -6.8373967e-11 0
-9.9999999 6.2958923e-14 0
-9.9999999 7.6296336e-17 0
-9.9999999 -2.519944e-18 0
-9.9999999 -8.8184603e-16 0
-9.9999999 2.0878869e-15 0
-9.9999999 -1.7740254e-15 0
-9.9999999 -2.8402367e-17 0
-9.9999999 1.731919e-15 0
-9.9999999 -1.7752256e-15 0
-9.9999999 -7.5898151e-17 0
-9.9999999 3.5400009e-17 0
-9.9999999 1.8854222e-15 0
-9.9999999 -9.0388942e-16 0
-9.9999999 9.7672089e-16 0
-9.9999999 -3.8986225e-13 0
-9.9999999 2.4625751e-15 0
-9.9999999 3.2646888e-13 0
-9.9999999 6.837334e-11 0
-9.9999999 3.3255281e-08 0
-9.9999999 -1.8124102e-05 0
-9.9999999 -0.0030912332 0
-9.9999999 0.0030912332 0
-9.9999999 1.8124098e-05 0
-9.9999999 -3.3259918e-08 0
-9.9999999 -6.333749e-11 0
-9.9999999 5.6160366e-12 0
-9.9999999 -1.8807071e-15 0
-9.9999999 -9.7762587e-18 0
-9.9999999 -8.8296667e-16 0
-9.9999999 -3.8871966e-13 0
-9.9999999 -3.9258022e-13 0
-9.9999999 9.9416998e-17 0
-9.9999999 1.8629106e-15 0
-9.9999999 -1.7743989e-15 0
-9.9999999 -7.335856e-17 0
-9.9999999 3.6997178e-17 0
-9.9999999 2.2330751e-15 0
-9.9999999 -3.5758836e-12 0
-9.9999999 -3.5736671e-12 0
-9.9999999 -4.3982972e-12 0
-9.9999998 -4.3966359e-12 0
-9.9999999 -6.3489035e-14 0
-9.9999999 6.8373358e-11 0
-9.9999999 3.3255281e-08 0
-9.9999999 -1.8124102e-05 0
-9.9999999 -0.0030912332 0
-9.9999999 0.0030912332 0
-9.9999999 1.8124103e-05 0
-9.9999998 -3.3253871e-08 0
-9.9999998 -6.8376038e-11 0
-9.9999998 6.0991468e-14 0
-9.9999998 -3.2678497e-17 0
-9.9999998 2.4063087e-16 0
-9.9999998 -5.7704224e-16 0
-9.9999998 1.9645095e-15 0
-9.9999997 -1.9621586e-15 0
-9.9999997 -1.3026561e-12 0
-9.9999997 -1.3008797e-12 0
-9.9999997 -1.7471368e-15 0
-9.9999997 -6.571755e-17 0
-9.9999997 5.0571514e-17 0
-9.9999997 1.8697387e-15 0
-9.9999997 -1.6491326e-15 0
-9.9999996 2.008246e-16 0
-9.9999996 3.9091288e-13 0
-9.9999995 -2.5103407e-12 0
-9.9999995 -2.9672592e-12 0
-9.9999995 6.8373424e-11 0
-9.9999995 3.3255281e-08 0
-9.9999995 -1.8124102e-05 0
-9.9999995 -0.0030912332 0
-9.9999995 0.0030912332 0
-9.9999995 1.8124106e-05 0
-9.9999996 -3.3250648e-08 0
-9.9999996 -6.8245176e-11 0
-9.9999996 -3.2501883e-13 0
-9.9999996 2.6192782e-16 0
-9.9999996 -1.8681602e-12 0
-9.9999996 -2.5677605e-12 0
-9.9999996 -9.5843484e-13 0
-9.9999996 -2.6366902e-13 0
-9.9999996 -3.5135704e-17 0
-9.9999995 -3.7110058e-13 0
-9.9999995 -3.7453139e-13 0
-9.9999995 1.2102195e-15 0
-9.9999995 2.7603745e-15 0
-9.9999995 2.476063e-15 0
-9.9999995 1.7026855e-12 0
-9.9999995 1.7052114e-12 0
-9.9999995 4.3989255e-12 0
-9.9999995 4.4004061e-12 0
-9.9999995 -6.4730776e-14 0
-9.9999995 6.8373337e-11 0
-9.9999995 3.3255282e-08 0
-9.9999995 -1.8124105e-05 0
-9.9999995 -0.0030912332 0
-9.9999995 0.0030912332 0
-9.9999995 1.81241e-05 0
-9.9999995 -3.3256695e-08 0
-9.9999995 -6.8373804e-11 0
-9.9999993 6.3113555e-14 0
-9.9999993 2.8222745e-16 0
-9.9999993 2.0939959e-16 0
-9.9999993 -8.9021115e-16 0
-9.9999992 1.9679075e-15 0
-9.9999993 -1.8894146e-15 0
-9.9999993 1.3025938e-12 0
-9.9999993 1.3043645e-12 0
-9.9999992 -8.5053585e-16 0
-9.9999992 -4.0855267e-12 0
-9.9999992 -8.8480434e-12 0
-9.9999992 1.5850584e-12 0
-9.9999992 6.3395876e-12 0
-9.9999991 -1.8999023e-15 0
-9.9999991 -7.0809828e-16 0
-9.9999991 2.5146206e-12 0
-9.9999991 2.4494781e-12 0
-9.9999991 6.8373543e-11 0
-9.9999991 3.325528e-08 0
-9.9999991 -1.8124102e-05 0
-9.999999 -0.0030912332 0
-9.999999 0.0030912332 0
-9.999999 1.8124102e-05 0
-9.999999 -3.3255315e-08 0
-9.999999 -6.8018664e-11 0
-9.999999 4.5131087e-13 0
-9.999999 -1.7126058e-12 0
-9.999999 1.5561528e-13 0
-9.999999 2.5661433e-12 0
-9.999999 1.3534576e-12 0
-9.999999 6.5085138e-13 0
-9.999999 -1.6596949e-16 0
-9.999999 3.7463682e-13 0
-9.999999 3.7369312e-13 0
-9.999999 4.072276e-16 0
-9.999999 2.4761898e-16 0
-9.9999989 1.7844717e-14 0
-9.999999 2.5863196e-12 0
-9.999999 2.5656951e-12 0
-9.999999 6.9815045e-13 0
-9.999999 -4.0604591e-12 0
-9.999999 -5.7088884e-12 0
-9.999999 6.7488993e-11 0
-9.999999 3.3260585e-08 0
-9.999999 -1.8124093e-05 0
-9.999999 -0.0030912332 0
-9.999999 0.0030912332 0
-9.999999 1.8124097e-05 0
-9.999999 -3.3254584e-08 0
-9.999999 -6.7663459e-11 0
-9.999999 7.6493028e-13 0
-9.999999 -2.1962689e-15 0
-9.9999989 -1.6310565e-13 0
-9.9999989 -1.6427663e-13 0
-9.9999989 1.6945236e-14 0
-9.9999989 1.2976749e-14 0
-9.9999989 1.4657548e-14 0
-9.9999989 3.2257783e-14 0
-9.9999989 -5.3131953e-12 0
-9.9999989 4.3068395e-12 0
-9.9999989 1.5161182e-11 0
-9.9999989 -8.4291488e-11 0
-9.9999989 8.8649081e-11 0
-9.9999989 1.1150804e-10 0
-9.9999989 1.1151665e-10 0
-9.9999989 1.115184e-10 0
-9.9999988 1.108126e-10 0
-9.9999988 1.7925099e-10 0
-9.9999988 3.3365164e-08 0
-9.9999988 -1.8123988e-05 0
-9.9999988 -0.003091233 0
-9.9999988 0.0030912331 0
-9.9999987 1.812493e-05 0
-9.9999987 -3.3141686e-08 0
-9.9999987 4.5466037e-11 0
-9.9999987 1.7539099e-10 0
-9.9999987 -6.6322944e-13 0
-9.9999987 4.7724818e-12 0
-9.9999987 2.4152934e-12 0
-9.9999987 2.4184961e-12 0
-9.9999987 3.040573e-12 0
-9.9999987 8.6467933e-12 0
-9.9999987 -7.4794783e-11 0
-9.9999987 9.8557056e-11 0
-9.9999986 1.1503855e-10 0
-9.9999987 1.1135306e-10 0
-9.9999987 -1.137273e-09 0
-9.9999981 4.8818797e-07 0
-9.9999981 4.8695108e-07 0
-9.9999981 4.8694721e-07 0
-9.9999981 4.8695161e-07 0
-9.9999981 4.8695313e-07 0
-9.9999981 4.8701566e-07 0
-9.9999981 5.2016977e-07 0
-9.9999976 -1.715008e-05 0
-9.9999976 -0.0030902586 0
-9.9999829 0.0030912318 0
-9.9999975 1.9100618e-05 0
-9.9999975 9.4074919e-07 0
-9.9999975 9.7393288e-07 0
-9.9999975 9.7524408e-07 0
-9.9999976 4.8591565e-07 0
-9.9999976 4.871586e-07 0
-9.9999976 4.8716552e-07 0
-9.9999976 4.8716533e-07 0
-9.9999976 4.8716569e-07 0
-9.9999976 4.8716112e-07 0
-9.9999976 4.856779e-07 0
-9.9999971 9.7547804e-07 0
-9.999997 9.7429401e-07 0
-9.999997 9.7428368e-07 0
-9.999997 9.7430573e-07 0
-9.999997 9.7448339e-07 0
-9.9999969 9.7440036e-07 0
-9.9999969 9.7440045e-07 0
-9.9999969 9.7439823e-07 0
-9.9999968 9.7439874e-07 0
-9.9999968 9.744709e-07 0
-9.9999968 1.0076165e-06 0
-9.9999967 -1.7149641e-05 0
-9.9999967 -0.0030902579 0
-9.9999821 0.0030912315 0
-9.9999966 1.9102646e-05 0
-9.9999966 9.4121429e-07 0
-9.9999966 9.74394e-07 0
-9.9999966 9.7446788e-07 0
-9.9999966 9.7429048e-07 0
-9.9999965 9.7435168e-07 0
-9.9999965 9.7434917e-07 0
-9.9999965 9.7434917e-07 0
-9.9999965 9.7435165e-07 0
-9.9999965 9.7433263e-07 0
-9.9999964 9.7107228e-07 0
-9.9999911 5.3607259e-06 0
-9.9999911 5.3573685e-06 0
-9.9999911 5.3573559e-06 0
-9.9999911 5.3573595e-06 0
-9.9999911 5.3573606e-06 0
-9.999991 5.3573576e-06 0
-9.999991 5.3571346e-06 0
-9.9999911 5.357612e-06 0
-9.999991 5.357649e-06 0
-9.999991 5.3577161e-06 0
-9.9999909 5.3902614e-06 0
-9.9999904 -1.2278841e-05 0
-9.9999904 -0.0030853852 0
-9.9999027 0.0030912274 0
-9.9999903 2.3981183e-05 0
-9.9999903 5.8113732e-06 0
-9.9999903 5.8445229e-06 0
-9.9999903 5.8445509e-06 0
-9.9999903 5.8446414e-06 0
-9.9999903 5.8446474e-06 0
-9.9999903 5.8446491e-06 0
-9.9999902 5.844649e-06 0
-9.9999902 5.8446467e-06 0
-9.9999902 5.844647e-06 0
-9.9999901 5.8447171e-06 0
-9.9999901 5.8451859e-06 0
-9.9999901 5.8449515e-06 0
-9.9999901 5.8449099e-06 0
-9.9999901 5.8449998e-06 0
-9.9999901 5.8450066e-06 0
-9.9999901 5.8449952e-06 0
-9.9999901 5.8416611e-06 0
-9.9999874 8.2830187e-06 0
-9.9999874 8.2796829e-06 0
-9.9999873 8.2797397e-06 0
-9.9999873 8.3129327e-06 0
-9.9999873 -9.8443063e-06 0
-9.9999873 -0.0030829492 0
-9.9998632 0.0030912247 0
-9.9999873 2.6419371e-05 0
-9.9999873 8.2465271e-06 0
-9.9999873 8.2797072e-06 0
-9.9999873 8.2791229e-06 0
-9.9999868 8.767333e-06 0
-9.9999868 8.7667457e-06 0
-9.9999868 8.7667775e-06 0
-9.9999867 8.7666995e-06 0
-9.9999867 8.766901e-06 0
-9.9999866 8.7669158e-06 0
-9.9999866 8.7669159e-06 0
-9.9999867 8.766911e-06 0
-9.9999867 8.7668374e-06 0
-9.9999867 8.7663572e-06 0
-9.9999861 9.2545784e-06 0
-9.9999861 9.2539549e-06 0
-9.999986 9.2539489e-06 0
-9.999986 9.2539876e-06 0
-9.999986 9.2544593e-06 0
-9.999986 9.2541573e-06 0
-9.999986 9.2542307e-06 0
-9.999986 9.2875132e-06 0
-9.999986 -8.869813e-06 0
-9.999986 -0.0030819749 0
-9.9998656 0.0030913087 0
-10.000006 2.5942501e-05 0
-10.000005 8.7347691e-06 0
-10.000005 9.2544788e-06 0
-10.000005 9.2543167e-06 0
-10.000004 9.2539183e-06 0
-10.000004 1.0228601e-05 0
-10.000003 1.0715837e-05 0
-10.000002 1.0714062e-05 0
-10.000002 1.1690525e-05 0
-10.000002 1.1689167e-05 0
-10.000002 1.16892e-05 0
-10.000002 1.1689179e-05 0
-10.000002 1.1688131e-05 0
-10.000001 1.2177143e-05 0
-10.000001 1.2176125e-05 0
-10.000001 1.2663219e-05 0
-10.000001 1.2663176e-05 0
-10.000001 1.2663174e-05 0
-9.999993 1.266317e-05 0
-9.9999929 1.2663274e-05 0
-9.9999851 1.2662261e-05 0
-9.9999851 1.2695396e-05 0
-9.9999851 -5.4713036e-06 0
-9.9999853 -0.0030786487 0
-10.002712 0.0029196357 0
-10.003058 3.1060241e-05 0
-10.003058 1.2637565e-05 0
-10.003058 1.3159022e-05 0
-10.003057 1.3645539e-05 0
-10.003057 1.3645486e-05 0
-10.003057 1.3645662e-05 0
-10.003058 1.3158759e-05 0
-10.003071 1.4620754e-05 0
-10.003071 1.4621758e-05 0
-10.003071 1.4621424e-05 0
-10.003071 1.5109281e-05 0
-10.003071 1.5108958e-05 0
-10.00307 1.5596725e-05 0
-10.00307 1.5596807e-05 0
-10.00307 1.5596741e-05 0
-10.00307 1.5596746e-05 0
-10.00307 1.5596745e-05 0
-10.00307 1.5596749e-05 0
-10.00307 1.559671e-05 0
-10.003069 1.6085935e-05 0
-10.00307 1.6083889e-05 0
-10.003061 1.611568e-05 0
-10.003061 -1.8010759e-06 0
-10.002891 -0.0029040544 0
9.3301654 -3.6883438 0
9.763498 2.2340712 0
9.9918073 0.58992797 0
9.9812389 0.74813389 0
9.9814939 0.74487712 0
9.9813952 0.74632373 0
9.9815871 0.74369964 0
9.9813652 0.74673085 0
9.9814648 0.74537568 0
9.9817337 0.74183321 0
9.9820443 0.73753512 0
9.9795321 0.77144526 0
9.9797809 0.76815752 0
9.9788767 0.78011652 0
9.9789242 0.77949846 0
9.9975695 0.46877831 0
9.9974964 0.47025876 0
9.9977271 0.46513866 0
9.997764 0.46433079 0
9.994378 0.53542083 0
9.9945622 0.53200614 0
9.9943779 0.53542293 0
9.9934713 0.55248382 0
9.9955856 0.5139613 0
9.9489605 -0.95149525 0
-6.2482685 3.1853441 0
-6.5927178 -2.1385029 0
-9.9924768 -0.54071323 0
-9.9819667 -0.70942869 0
-9.9821806 -0.70630676 0
-9.9820803 -0.70759508 0
-9.9822731 -0.70491452 0
-9.9820505 -0.70800516 0
-9.9821504 -0.70661338 0
-9.9824184 -0.70273742 0
-9.9827304 -0.69838972 0
-9.9802105 -0.73292545 0
-9.9804598 -0.72957529 0
-9.9795521 -0.74161022 0
-9.979617 -0.7409986 0
-9.9983687 -0.43409612 0
-9.9983047 -0.43549667 0
-9.9985371 -0.43031295 0
-9.9985744 -0.42945565 0
-9.9951608 -0.4994918 0
-9.9953443 -0.49575585 0
-9.9951606 -0.49949653 0
-9.9942532 -0.51690763 0
-9.9963455 -0.47327593 0
-9.9516984 1.1834946 0
10.048759 -0.38590613 0
9.988229 0.84525033 0
10.005835 0.13042661 0
10.003752 0.25583476 0
10.003794 0.25403506 0
10.003794 0.25407299 0
10.003834 0.25226163 0
10.003788 0.25432172 0
10.00381 0.25333567 0
10.003905 0.24908005 0
10.003961 0.24639183 0
10.003447 0.26963805 0
10.0035 0.26741234 0