# vtk DataFile Version 4.0
hesp visualization file
ASCII
DATASET UNSTRUCTURED_GRID
POINTS 1250 double
30.562545 1.1590254 4
30.532031 2.2321966 4
30.4452 3.3642599 4
30.4452 4.4865722 4
30.4452 5.6090489 4
30.4452 6.7315032 4
30.4452 7.8539722 4
30.4452 8.9764261 4
30.4452 10.098892 4
30.4452 11.221359 4
30.4452 12.343833 4
30.445197 13.466202 4
30.445197 14.588673 4
30.445196 15.7111 4
30.445196 16.833564 4
30.445201 17.957059 4
30.445201 19.079516 4
30.445201 20.201993 4
30.445201 21.324456 4
30.445199 22.446677 4
30.445199 23.569143 4
30.445197 24.691601 4
30.445196 25.814017 4
30.445196 26.936431 4
30.445188 28.056429 4
30.891665 1.0843892 4
30.884918 2.2518381 4
30.881448 3.3694049 4
30.881447 4.4915634 4
30.881447 5.6140169 4
30.881447 6.736482 4
30.881447 7.8589425 4
30.881447 8.9814064 4
30.881447 10.103868 4
30.881447 11.22633 4
30.881447 12.348789 4
30.881447 13.471273 4
30.881447 14.593733 4
30.881447 15.716204 4
30.881447 16.838665 4
30.881447 17.96085 4
30.881447 19.083312 4
30.881447 20.20577 4
30.881447 21.328232 4
30.881447 22.450767 4
30.881447 23.573229 4
30.881447 24.695691 4
30.881447 25.818164 4
30.881448 26.940851 4
30.881572 28.071804 4
32.02276 1.2085334 4
31.889791 2.2395441 4
31.77181 3.3658425 4
31.771812 4.4885594 4
31.771811 5.6110278 4
31.771811 6.7334879 4
31.771811 7.8559509 4
31.771811 8.9784118 4
31.771811 10.100874 4
31.771811 11.223336 4
31.771811 12.3458 4
31.77181 13.468248 4
31.771808 14.590711 4
31.771811 15.713168 4
31.771808 16.83563 4
31.771809 17.958266 4
31.771808 19.080728 4
31.771808 20.203193 4
31.771808 21.325655 4
31.771808 22.448069 4
31.771808 23.570532 4
31.771808 24.692994 4
31.771808 25.815449 4
31.771806 26.937706 4
31.771674 28.051862 4
32.612795 1.0644356 4
32.20973 2.2458672 4
32.208092 3.3676552 4
32.208093 4.4900504 4
32.208093 5.6125116 4
32.208093 6.7349736 4
32.208093 7.8574357 4
32.208093 8.9798977 4
32.208093 10.10236 4
32.208093 11.224822 4
32.208093 12.347284 4
32.208093 13.469746 4
32.208093 14.592208 4
32.208093 15.71467 4
32.208093 16.837132 4
32.208093 17.959603 4
32.208093 19.082065 4
32.208093 20.204527 4
32.208093 21.326989 4
32.208093 22.449451 4
32.208093 23.571913 4
32.208093 24.694375 4
32.208093 25.816837 4
32.208093 26.939358 4
32.208101 28.063691 4
33.328471 1.1269664 4
33.328082 2.2442115 4
33.098119 3.3672076 4
33.098109 4.489716 4
33.098109 5.6121787 4
33.098109 6.7346407 4
33.098109 7.8571028 4
33.098109 8.9795648 4
33.098109 10.102027 4
33.098109 11.224489 4
33.098109 12.346951 4
33.098109 13.469413 4
33.098109 14.591875 4
33.098109 15.714337 4
33.098109 16.836799 4
33.098109 17.959255 4
33.098109 19.081718 4
33.098109 20.20418 4
33.098109 21.326642 4
33.098109 22.449104 4
33.098109 23.571566 4
33.098109 24.694028 4
33.098109 25.81649 4
33.098109 26.938908 4
33.098107 28.059392 4
33.556151 1.1225821 4
33.555109 2.2449821 4
33.534689 3.3673852 4
33.534689 4.4898482 4
33.534689 5.6123102 4
33.534689 6.7347723 4
33.534689 7.8572343 4
33.534689 8.9796964 4
33.534689 10.102158 4
33.534689 11.22462 4
33.534689 12.347083 4
33.534689 13.469545 4
33.534689 14.592007 4
33.534689 15.714469 4
33.534689 16.836931 4
33.534689 17.959393 4
33.534689 19.081855 4
33.534689 20.204317 4
33.534689 21.326779 4
33.534689 22.449241 4
33.534689 23.571703 4
33.534689 24.694165 4
33.534689 25.816627 4
33.534689 26.939086 4
33.53469 28.061098 4
34.657234 1.122914 4
34.657234 2.244927 4
34.657234 3.3673861 4
34.657234 4.4898482 4
34.657234 5.6123102 4
34.657234 6.7347723 4
34.657234 7.8572343 4
34.657234 8.9796964 4
34.657234 10.102158 4
34.657234 11.22462 4
34.657234 12.347083 4
34.657234 13.469545 4
34.657234 14.592007 4
34.657234 15.714469 4
34.657234 16.836931 4
34.657234 17.959393 4
34.657234 19.081855 4
34.657234 20.204317 4
34.657234 21.326779 4
34.657234 22.449241 4
34.657234 23.571703 4
34.657234 24.694165 4
34.657234 25.816627 4
34.657234 26.939086 4
34.657234 28.061099 4
35.779696 1.122914 4
35.779696 2.244927 4
35.779696 3.3673861 4
35.779696 4.4898482 4
35.779696 5.6123102 4
35.779696 6.7347723 4
35.779696 7.8572343 4
35.779696 8.9796964 4
35.779696 10.102158 4
35.779696 11.22462 4
35.779696 12.347083 4
35.779696 13.469545 4
35.779696 14.592007 4
35.779696 15.714469 4
35.779696 16.836931 4
35.779696 17.959393 4
35.779696 19.081855 4
35.779696 20.204317 4
35.779696 21.326779 4
35.779696 22.449241 4
35.779696 23.571703 4
35.779696 24.694165 4
35.779696 25.816627 4
35.779696 26.939086 4
35.779696 28.061099 4
36.902158 1.122914 4
36.902158 2.244927 4
36.902158 3.3673861 4
36.902158 4.4898482 4
36.902158 5.6123102 4
36.902158 6.7347723 4
36.902158 7.8572343 4
36.902158 8.9796964 4
36.902158 10.102158 4
36.902158 11.22462 4
36.902158 12.347083 4
36.902158 13.469545 4
36.902158 14.592007 4
36.902158 15.714469 4
36.902158 16.836931 4
36.902158 17.959393 4
36.902158 19.081855 4
36.902158 20.204317 4
36.902158 21.326779 4
36.902158 22.449241 4
36.902158 23.571703 4
36.902158 24.694165 4
36.902158 25.816627 4
36.902158 26.939086 4
36.902158 28.061099 4
38.02462 1.122914 4
38.02462 2.244927 4
38.02462 3.3673861 4
38.02462 4.4898482 4
38.02462 5.6123102 4
38.02462 6.7347723 4
38.02462 7.8572343 4
38.02462 8.9796964 4
38.02462 10.102158 4
38.02462 11.22462 4
38.02462 12.347083 4
38.02462 13.469545 4
38.02462 14.592007 4
38.02462 15.714469 4
38.02462 16.836931 4
38.02462 17.959393 4
38.02462 19.081855 4
38.02462 20.204317 4
38.02462 21.326779 4
38.02462 22.449241 4
38.02462 23.571703 4
38.02462 24.694165 4
38.02462 25.816627 4
38.02462 26.939086 4
38.02462 28.061099 4
39.147083 1.122914 4
39.147083 2.244927 4
39.147083 3.3673861 4
39.147083 4.4898482 4
39.147083 5.6123102 4
39.147083 6.7347723 4
39.147083 7.8572343 4
39.147083 8.9796964 4
39.147083 10.102158 4
39.147083 11.22462 4
39.147083 12.347083 4
39.147083 13.469545 4
39.147083 14.592007 4
39.147083 15.714469 4
39.147083 16.836931 4
39.147083 17.959393 4
39.147083 19.081855 4
39.147083 20.204317 4
39.147083 21.326779 4
39.147083 22.449241 4
39.147083 23.571703 4
39.147083 24.694165 4
39.147083 25.816627 4
39.147083 26.939086 4
39.147083 28.061099 4
40.269545 1.122914 4
40.269545 2.244927 4
40.269545 3.3673861 4
40.269545 4.4898482 4
40.269545 5.6123102 4
40.269545 6.7347723 4
40.269545 7.8572343 4
40.269545 8.9796964 4
40.269545 10.102158 4
40.269545 11.22462 4
40.269545 12.347083 4
40.269545 13.469545 4
40.269545 14.592007 4
40.269545 15.714469 4
40.269545 16.836931 4
40.269545 17.959393 4
40.269545 19.081855 4
40.269545 20.204317 4
40.269545 21.326779 4
40.269545 22.449241 4
40.269545 23.571703 4
40.269545 24.694165 4
40.269545 25.816627 4
40.269545 26.939086 4
40.269545 28.061099 4
41.392007 1.122914 4
41.392007 2.244927 4
41.392007 3.3673861 4
41.392007 4.4898482 4
41.392007 5.6123102 4
41.392007 6.7347723 4
41.392007 7.8572343 4
41.392007 8.9796964 4
41.392007 10.102158 4
41.392007 11.22462 4
41.392007 12.347083 4
41.392007 13.469545 4
41.392007 14.592007 4
41.392007 15.714469 4
41.392007 16.836931 4
41.392007 17.959393 4
41.392007 19.081855 4
41.392007 20.204317 4
41.392007 21.326779 4
41.392007 22.449241 4
41.392007 23.571703 4
41.392007 24.694165 4
41.392007 25.816627 4
41.392007 26.939086 4
41.392007 28.061099 4
42.514469 1.122914 4
42.514469 2.244927 4
42.514469 3.3673861 4
42.514469 4.4898482 4
42.514469 5.6123102 4
42.514469 6.7347723 4
42.514469 7.8572343 4
42.514469 8.9796964 4
42.514469 10.102158 4
42.514469 11.22462 4
42.514469 12.347083 4
42.514469 13.469545 4
42.514469 14.592007 4
42.514469 15.714469 4
42.514469 16.836931 4
42.514469 17.959393 4
42.514469 19.081855 4
42.514469 20.204317 4
42.514469 21.326779 4
42.514469 22.449241 4
42.514469 23.571703 4
42.514469 24.694165 4
42.514469 25.816627 4
42.514469 26.939086 4
42.514469 28.061099 4
43.636931 1.122914 4
43.636931 2.244927 4
43.636931 3.3673861 4
43.636931 4.4898482 4
43.636931 5.6123102 4
43.636931 6.7347723 4
43.636931 7.8572343 4
43.636931 8.9796964 4
43.636931 10.102158 4
43.636931 11.22462 4
43.636931 12.347083 4
43.636931 13.469545 4
43.636931 14.592007 4
43.636931 15.714469 4
43.636931 16.836931 4
43.636931 17.959393 4
43.636931 19.081855 4
43.636931 20.204317 4
43.636931 21.326779 4
43.636931 22.449241 4
43.636931 23.571703 4
43.636931 24.694165 4
43.636931 25.816627 4
43.636931 26.939086 4
43.636931 28.061099 4
44.759393 1.122914 4
44.759393 2.244927 4
44.759393 3.3673861 4
44.759393 4.4898482 4
44.759393 5.6123102 4
44.759393 6.7347723 4
44.759393 7.8572343 4
44.759393 8.9796964 4
44.759393 10.102158 4
44.759393 11.22462 4
44.759393 12.347083 4
44.759393 13.469545 4
44.759393 14.592007 4
44.759393 15.714469 4
44.759393 16.836931 4
44.759393 17.959393 4
44.759393 19.081855 4
44.759393 20.204317 4
44.759393 21.326779 4
44.759393 22.449241 4
44.759393 23.571703 4
44.759393 24.694165 4
44.759393 25.816627 4
44.759393 26.939086 4
44.759393 28.061099 4
45.881855 1.122914 4
45.881855 2.244927 4
45.881855 3.3673861 4
45.881855 4.4898482 4
45.881855 5.6123102 4
45.881855 6.7347723 4
45.881855 7.8572343 4
45.881855 8.9796964 4
45.881855 10.102158 4
45.881855 11.22462 4
45.881855 12.347083 4
45.881855 13.469545 4
45.881855 14.592007 4
45.881855 15.714469 4
45.881855 16.836931 4
45.881855 17.959393 4
45.881855 19.081855 4
45.881855 20.204317 4
45.881855 21.326779 4
45.881855 22.449241 4
45.881855 23.571703 4
45.881855 24.694165 4
45.881855 25.816627 4
45.881855 26.939086 4
45.881855 28.061099 4
47.004317 1.122914 4
47.004317 2.244927 4
47.004317 3.3673861 4
47.004317 4.4898482 4
47.004317 5.6123102 4
47.004317 6.7347723 4
47.004317 7.8572343 4
47.004317 8.9796964 4
47.004317 10.102158 4
47.004317 11.22462 4
47.004317 12.347083 4
47.004317 13.469545 4
47.004317 14.592007 4
47.004317 15.714469 4
47.004317 16.836931 4
47.004317 17.959393 4
47.004317 19.081855 4
47.004317 20.204317 4
47.004317 21.326779 4
47.004317 22.449241 4
47.004317 23.571703 4
47.004317 24.694165 4
47.004317 25.816627 4
47.004317 26.939086 4
47.004317 28.061099 4
48.126779 1.122914 4
48.126779 2.244927 4
48.126779 3.3673861 4
48.126779 4.4898482 4
[...]
POINT_DATA 1250
SCALARS m double
LOOKUP_TABLE default
1
1
1
1
1
1
1
1
1
1
1
1
1
1
1
1
1
1
1
1
1
1
1
1
1
1
1
1
1
1
1
1
1
1
1
1
1
1
1
1
1
1
1
1
1
1
1
1
1
1
1
1
1
1
1
1
1
1
1
1
1
1
1
1
1
1
1
1
1
1
1
1
1
1
1
1
1
1
1
1
1
1
1
1
1
1
1
1
1
1
1
1
1
1
1
1
1
1
1
1
1
1
1
1
1
1
1
1
1
1
1
1
1
1
1
1
1
1
1
1
1
1
1
1
1
1
1
1
1
1
1
1
1
1
1
1
1
1
1
1
1
1
1
1
1
1
1
1
1
1
1
1
1
1
1
1
1
1
1
1
1
1
1
1
1
1
1
1
1
1
1
1
1
1
1
1
1
1
1
1
1
1
1
1
1
1
1
1
1
1
1
1
1
1
1
1
1
1
1
1
1
1
1
1
1
1
1
1
1
1
1
1
1
1
1
1
1
1
1
1
1
1
1
1
1
1
1
1
1
1
1
1
1
1
1
1
1
1
1
1
1
1
1
1
1
1
1
1
1
1
1
1
1
1
1
1
1
1
1
1
1
1
1
1
1
1
1
1
1
1
1
1
1
1
1
1
1
1
1
1
1
1
1
1
1
1
1
1
1
1
1
1
1
1
1
1
1
1
1
1
1
1
1
1
1
1
1
1
1
1
1
1
1
1
1
1
1
1
1
1
1
1
1
1
1
1
1
1
1
1
1
1
1
1
1
1
1
1
1
1
1
1
1
1
1
1
1
1
1
1
1
1
1
1
1
1
1
1
1
1
1
1
1
1
1
1
1
1
1
1
1
1
1
1
1
1
1
1
1
1
1
1
1
1
1
1
1
1
1
1
1
1
1
1
1
1
1
1
1
1
1
1
1
1
1
1
1
1
1
1
1
1
1
1
1
1
1
1
1
1
1
1
1
1
1
1
1
1
1
1
1
1
1
1
1
1
1
1
1
1
1
1
1
1
1
1
1
1
1
1
1
1
1
1
1
1
1
1
1
1
1
1
1
1
1
1
1
1
1
1
1
1
1
1
1
1
1
1
1
1
1
1
1
1
1
1
1
1
1
1
1
1
1
1
1
1
1
1
1
1
1
1
1
1
1
1
1
1
1
1
1
1
1
1
1
1
1
1
1
1
1
1
1
1
1
1
1
1
1
1
1
1
1
1
1
1
1
1
1
1
1
1
1
1
1
1
1
1
1
1
1
1
1
1
1
1
1
1
1
1
1
1
1
1
1
1
1
1
1
1
1
1
1
1
1
1
1
1
1
1
1
1
1
1
1
1
1
1
1
1
1
1
1
1
1
1
1
1
1
1
1
1
1
1
1
1
1
1
1
1
1
1
1
1
1
1
1
1
1
1
1
1
1
1
1
1
1
1
1
1
1
1
1
1
1
1
1
1
1
1
1
1
1
1
1
1
1
1
1
1
1
1
1
1
1
1
1
1
1
1
1
1
1
1
1
1
1
1
1
1
1
1
1
1
1
1
1
1
1
1
1
1
1
1
1
1
1
1
1
1
1
1
1
1
1
1
1
1
1
1
1
1
1
1
1
1
1
1
1
1
1
1
1
1
1
1
1
1
1
1
1
1
1
1
1
1
1
1
1
1
1
1
1
1
1
1
1
1
1
1
1
1
1
1
1
1
1
1
1
1
1
1
1
1
1
1
1
1
1
1
1
1
1
1
1
1
1
1
1
1
1
1
1
1
1
1
1
1
1
1
1
1
1
1
1
1
1
1
1
1
1
1
1
1
1
1
1
1
1
1
1
1
1
1
1
1
1
1
1
1
1
1
1
1
1
1
1
1
1
1
1
1
1
1
1
1
1
1
1
1
1
1
1
1
1
1
1
1
1
1
1
1
1
1
1
1
1
1
1
1
1
1
1
1
1
1
1
1
1
1
1
1
1
1
1
1
1
1
1
1
1
1
1
1
1
1
1
1
1
1
1
1
1
1
1
1
1
1
1
1
1
1
1
1
1
1
1
1
1
1
1
1
1
1
1
1
1
1
1
1
1
1
1
1
1
1
1
1
1
1
1
1
1
1
1
1
1
1
1
1
1
1
1
1
1
1
1
1
1
1
1
1
1
1
1
1
1
1
1
1
1
1
1
1
1
1
1
1
1
1
1
1
1
1
1
1
1
1
1
1
1
1
1
1
1
1
1
1
1
1
1
1
1
1
1
1
1
1
1
1
1
1
1
1
1
1
1
1
1
1
1
1
1
1
1
1
1
1
1
1
1
1
1
1
1
1
1
1
1
1
1
1
1
1
1
1
1
1
1
1
1
1
1
1
1
1
1
1
1
1
1
1
1
1
1
1
1
1
1
1
1
1
1
1
1
1
1
1
1
1
1
1
1
1
1
1
1
1
1
1
1
1
1
1
1
1
1
1
1
1
1
1
1
1
1
1
1
1
1
1
1
1
1
1
1
1
1
1
1
1
1
1
1
1
1
1
1
1
1
1
1
1
1
1
1
1
1
1
1
1
1
1
1
1
1
1
1
1
1
1
1
1
1
1
1
1
1
1
1
1
1
1
1
1
1
1
1
1
1
1
1
1
1
1
1
1
1
1
1
1
1
1
1
1
1
1
1
1
1
1
1
1
1
1
1
1
1
1
1
1
1
1
1
1
1
1
1
1
1
1
1
1
1
1
1
1
1
1
1
1
1
1
1
1
1
1
1
1
1
1
1
1
1
1
1
1
1
1
1
1
1
1
1
1
1
1
1
1
1
1
1
1
1
1
1
1
1
1
1
1
1
1
1
1
1
1
1
1
1
1
VECTORS v double
13.361202 0.89417111 0
12.550953 -0.33236345 0
10.021866 -0.079032537 0
10.021822 -0.08474123 0
10.021825 -0.084369503 0
10.021823 -0.084570312 0
10.021825 -0.084380195 0
10.021823 -0.08460285 0
10.021824 -0.08450787 0
10.021826 -0.084364958 0
10.021829 -0.084031557 0
10.021796 -0.086560365 0
10.021798 -0.086317706 0
10.021789 -0.087276651 0
10.02179 -0.087221083 0
10.021945 -0.05950229 0
10.021945 -0.059638564 0
10.021947 -0.05924521 0
10.021947 -0.059202944 0
10.021904 -0.065665343 0
10.021906 -0.065527808 0
10.021895 -0.06566466 0
10.021877 -0.066921634 0
10.021877 -0.067325608 0
10.021771 -0.090412921 0
-10.024452 -0.65233657 0
-10.040816 0.15187034 0
-10.021284 0.048655959 0
-10.021295 0.04116486 0
-10.021296 0.040958344 0
-10.021296 0.041029725 0
-10.021296 0.040994373 0
-10.021296 0.041036906 0
-10.021296 0.041019908 0
-10.021296 0.041020079 0
-10.021296 0.040950073 0
-10.021294 0.041461618 0
-10.021294 0.041415016 0
-10.021293 0.04162631 0
-10.021293 0.041611198 0
-10.021317 0.03517839 0
-10.021318 0.035178281 0
-10.021318 0.035097435 0
-10.021318 0.035095337 0
-10.021312 0.036784049 0
-10.021312 0.036784188 0
-10.021311 0.036783844 0
-10.02131 0.037035781 0
-10.021287 0.042706275 0
-10.017976 0.26214074 0
-9.5034959 3.8919321 0
10.940888 -0.13424743 0
10.022375 -0.042857805 0
10.022383 -0.036000411 0
10.022383 -0.035821137 0
10.022383 -0.035879553 0
10.022382 -0.035850539 0
10.022382 -0.035885442 0
10.022382 -0.035871488 0
10.022382 -0.035871497 0
10.022382 -0.035814082 0
10.022375 -0.036233708 0
10.022366 -0.036195518 0
10.022375 -0.036368715 0
10.022365 -0.036356269 0
10.022388 -0.031184551 0
10.022385 -0.031184553 0
10.022385 -0.031118237 0
10.022385 -0.031116493 0
10.02238 -0.032500068 0
10.022379 -0.032500063 0
10.022379 -0.032499893 0
10.022378 -0.032706401 0
10.022354 -0.038098278 0
10.019012 -0.25029008 0
14.744523 -3.3931961 0
-10.041096 0.017669959 0
-10.020233 0.0063073517 0
-10.020218 0.004702272 0
-10.020218 0.0046816817 0
-10.020218 0.0046816145 0
-10.020218 0.0046816476 0
-10.020218 0.0046816084 0
-10.020218 0.0046816242 0
-10.020218 0.0046816239 0
-10.020218 0.0046816919 0
-10.020218 0.0046812042 0
-10.020217 0.0046813529 0
-10.020218 0.004681047 0
-10.020217 0.0046809227 0
-10.020218 0.0048927499 0
-10.020217 0.0048926974 0
-10.020217 0.0048927716 0
-10.020217 0.0048927823 0
-10.020217 0.0048911984 0
-10.020217 0.0048912075 0
-10.020217 0.0048911871 0
-10.020217 0.0048907719 0
-10.020216 0.0063170258 0
-10.01996 0.057566908 0
-4.2226862 0.34536474 0
-3.8827866 -0.059625323 0
10.02111 -0.0051707638 0
10.020963 -0.0038692319 0
10.020962 -0.0038520012 0
10.020962 -0.0038520008 0
10.020962 -0.0038520007 0
10.020962 -0.0038520009 0
10.020962 -0.0038520009 0
10.020962 -0.0038520009 0
10.020962 -0.0038520017 0
10.020962 -0.0038519886 0
10.020962 -0.0038520695 0
10.020962 -0.003851981 0
10.020962 -0.0038518994 0
10.020962 -0.0040199727 0
10.020962 -0.0040199633 0
10.020962 -0.0040199632 0
10.020962 -0.0040199631 0
10.020962 -0.0040199382 0
10.020962 -0.004019938 0
10.020962 -0.0040199196 0
10.020962 -0.0040196863 0
10.02096 -0.0052272441 0
10.020841 -0.052856566 0
5.4281688 -0.25516136 0
5.0832181 0.044569555 0
-10.018776 -6.8171724e-05 0
-10.018759 -4.853548e-06 0
-10.018759 -4.2516505e-06 0
-10.018759 -4.2518687e-06 0
-10.018759 -4.251867e-06 0
-10.018759 -4.2518694e-06 0
-10.018759 -4.2518681e-06 0
-10.018759 -4.2518693e-06 0
-10.018759 -4.2518625e-06 0
-10.018759 -4.2518745e-06 0
-10.018759 -4.2519473e-06 0
-10.018759 -4.251847e-06 0
-10.018759 -4.2507857e-06 0
-10.018759 -4.4381727e-06 0
-10.018759 -4.4371563e-06 0
-10.018759 -4.4371397e-06 0
-10.018759 -4.4371194e-06 0
-10.018759 -4.4371609e-06 0
-10.018759 -4.4371392e-06 0
-10.018759 -4.4369683e-06 0
-10.018759 -4.3981565e-06 0
-10.018759 -2.3710814e-05 0
-10.01872 -0.0029437608 0
-10.000031 0.0028291994 0
-10.000033 1.4975323e-05 0
-10.000015 -1.943001e-06 0
-10.000013 -1.0498917e-10 0
-10.000013 -1.0752921e-10 0
-10.000013 -1.0869348e-10 0
-10.000013 -1.0869348e-10 0
-10.000013 -1.0869436e-10 0
-10.000013 -1.0869164e-10 0
-10.000013 -1.0869512e-10 0
-10.000013 -1.0869386e-10 0
-10.000013 -1.086855e-10 0
-10.000013 -1.0870619e-10 0
-10.000013 -1.086926e-10 0
-10.000013 -1.0211235e-10 0
-10.000013 -1.2088588e-10 0
-10.000013 -1.1343299e-10 0
-10.000013 -1.1343146e-10 0
-10.000013 -1.1343251e-10 0
-10.000013 -1.1342884e-10 0
-10.000013 -1.1347399e-10 0
-10.000013 -5.9417138e-11 0
-10.000013 2.5477742e-08 0
-10.000013 -1.7047009e-05 0
-10.00001 -0.0028272504 0
-10 0.0028257934 0
-10 1.7042763e-05 0
-10 -3.2143773e-08 0
-10 -5.2863815e-11 0
-10 3.9413083e-14 0
-10 -1.1392542e-15 0
-10 -1.1863018e-15 0
-10 -1.991367e-15 0
-10 7.1416038e-16 0
-10 -2.8176804e-15 0
-10 -1.2111471e-15 0
-10 3.9865573e-16 0
-10 -2.808444e-15 0
-10 -1.2534329e-15 0
-10 -1.1492371e-15 0
-10 4.5206559e-16 0
-10 -2.9239276e-15 0
-10 -1.240501e-15 0
-10 -1.1692304e-15 0
-10 2.8818611e-16 0
-10 -4.3018012e-14 0
-10 5.4024275e-11 0
-10 2.5537112e-08 0
-10 -1.7049418e-05 0
-10 -0.0028257867 0
-10 0.0028257867 0
-10 1.7049418e-05 0
-10 -2.5537122e-08 0
-10 -5.4025988e-11 0
-10 4.0620361e-14 0
-10 4.4999644e-17 0
-10 -2.3816788e-18 0
-10 -8.0725334e-16 0
-10 1.8978323e-15 0
-10 -1.6335568e-15 0
-10 -2.7305611e-17 0
-10 1.5825158e-15 0
-10 -1.6239176e-15 0
-10 -6.8475055e-17 0
-10 3.2443715e-17 0
-10 1.689087e-15 0
-10 -1.691382e-15 0
-10 -5.8397117e-18 0
-10 6.5392329e-17 0
-10 1.5228372e-15 0
-10 -4.1782285e-14 0
-10 5.4025527e-11 0
-10 2.5537114e-08 0
-10 -1.7049418e-05 0
-10 -0.0028257867 0
-10 0.0028257867 0
-10 1.7049418e-05 0
-10 -2.5537115e-08 0
-10 -5.4024397e-11 0
-10 4.2197392e-14 0
-10 1.2600854e-16 0
-10 -2.4799621e-18 0
-10 -8.0776772e-16 0
-10 1.8978941e-15 0
-10 -1.6335281e-15 0
-10 -2.7904581e-17 0
-10 1.5817447e-15 0
-10 -1.6251769e-15 0
-10 -6.7637214e-17 0
-10 3.3031805e-17 0
-10 1.6896634e-15 0
-10 -1.6915921e-15 0
-10 -5.8415587e-18 0
-10 6.5563462e-17 0
-10 1.5222069e-15 0
-10 -4.1782896e-14 0
-10 5.4025526e-11 0
-10 2.5537114e-08 0
-10 -1.7049418e-05 0
-10 -0.0028257867 0
-10 0.0028257867 0
-10 1.7049418e-05 0
-10 -2.5537114e-08 0
-10 -5.8597512e-11 0
-10 -4.5305706e-12 0
-10 1.3106393e-15 0
-10 3.5417322e-18 0
-10 -8.0661861e-16 0
-10 1.8978865e-15 0
-10 -1.6334895e-15 0
-10 -2.6892775e-17 0
-10 1.5832973e-15 0
-10 -1.6228122e-15 0
-10 -6.9500778e-17 0
-10 3.2153754e-17 0
-10 1.6885835e-15 0
-10 -1.6916548e-15 0
-10 -5.8000183e-18 0
-10 7.0155556e-17 0
-10 1.5254418e-15 0
-10 -4.1784234e-14 0
-10 5.4025528e-11 0
-10 2.5537114e-08 0
-10 -1.7049418e-05 0
-10 -0.0028257867 0
-9.9999999 0.0028257867 0
-9.9999999 1.7049418e-05 0
-9.9999999 -2.5537114e-08 0
-9.9999999 -5.402612e-11 0
-9.9999999 4.0483587e-14 0
-9.9999999 4.5555513e-17 0
-9.9999999 -2.2679771e-18 0
-9.9999999 -8.0639711e-16 0
-9.9999999 1.8999359e-15 0
-9.9999999 -1.6309337e-15 0
-9.9999999 -2.6508004e-17 0
-9.9999999 1.5834541e-15 0
-9.9999999 -1.6225151e-15 0
-9.9999999 -6.9829168e-17 0
-9.9999999 3.2204352e-17 0
-9.9999999 1.7087886e-15 0
-9.9999999 -1.0976199e-15 0
-9.9999999 6.0657241e-16 0
-9.9999999 -1.6513612e-13 0
-9.9999999 1.9978641e-15 0
-9.9999999 1.2393381e-13 0
-9.9999999 5.4025528e-11 0
-9.9999999 2.5537114e-08 0
-9.9999999 -1.7049418e-05 0
-9.9999999 -0.0028257867 0
-9.9999999 0.0028257867 0
-9.9999999 1.7049415e-05 0
-9.9999999 -2.5540646e-08 0
-9.9999999 -4.9705415e-11 0
-9.9999999 4.6118531e-12 0
-9.9999999 -1.2622645e-15 0
-9.9999999 -7.2612345e-18 0
-9.9999999 -8.0666488e-16 0
-9.9999999 -1.6379848e-13 0
-9.9999999 -1.6733019e-13 0
-9.9999999 3.0106491e-17 0
-9.9999999 1.6411954e-15 0
-9.9999999 -1.6251252e-15 0
-9.9999999 -6.6825613e-17 0
-9.9999999 3.3271785e-17 0
-9.9999999 1.8042113e-15 0
-9.9999999 -2.7980317e-12 0
-9.9999999 -2.7962365e-12 0
-9.9999999 -3.2277867e-12 0
-9.9999998 -3.2261685e-12 0
-9.9999999 -4.1382244e-14 0
-9.9999999 5.4025534e-11 0
-9.9999999 2.5537114e-08 0
-9.9999999 -1.7049418e-05 0
-9.9999999 -0.0028257866 0
-9.9999999 0.0028257866 0
-9.9999999 1.7049419e-05 0
-9.9999998 -2.5536189e-08 0
-9.9999998 -5.4027445e-11 0
-9.9999998 3.9194567e-14 0
-9.9999998 -2.9960482e-17 0
-9.9999998 1.2031733e-16 0
-9.9999998 -6.5590414e-16 0
-9.9999998 1.7373699e-15 0
-9.9999997 -1.8384344e-15 0
-9.9999997 -8.523232e-13 0
-9.9999997 -8.5070637e-13 0
-9.9999997 -1.6303916e-15 0
-9.9999997 -6.3344577e-17 0
-9.9999997 4.005571e-17 0
-9.9999997 1.6973603e-15 0
-9.9999997 -1.585814e-15 0
-9.9999996 1.0297661e-16 0
-9.9999996 1.6572274e-13 0
-9.9999995 -1.8664415e-12 0
-9.9999995 -2.0754614e-12 0
-9.9999995 5.4025502e-11 0
-9.9999995 2.5537114e-08 0
-9.9999995 -1.7049418e-05 0
-9.9999995 -0.0028257866 0
-9.9999995 0.0028257866 0
-9.9999995 1.7049422e-05 0
-9.9999996 -2.5533585e-08 0
-9.9999996 -5.3929216e-11 0
-9.9999996 -1.1346175e-13 0
-9.9999996 1.2588257e-16 0
-9.9999996 -1.3193685e-12 0
-9.9999996 -1.7018029e-12 0
-9.9999996 -7.2033263e-13 0
-9.9999996 -3.4218325e-13 0
-9.9999996 -2.442748e-17 0
-9.9999995 -1.5248921e-13 0
-9.9999995 -1.5564974e-13 0
-9.9999995 7.5421984e-16 0
-9.9999995 1.8121369e-15 0
-9.9999995 2.2365352e-15 0
-9.9999995 1.4746158e-12 0
-9.9999995 1.4767771e-12 0
-9.9999995 3.2280989e-12 0
-9.9999995 3.2294926e-12 0
-9.9999995 -4.1888929e-14 0
-9.9999995 5.4025525e-11 0
-9.9999995 2.5537115e-08 0
-9.9999995 -1.7049421e-05 0
-9.9999995 -0.0028257867 0
-9.9999995 0.0028257867 0
-9.9999995 1.7049417e-05 0
-9.9999995 -2.5538042e-08 0
-9.9999995 -5.4025984e-11 0
-9.9999994 4.062663e-14 0
-9.9999994 1.4580762e-16 0
-9.9999994 1.0077246e-16 0
-9.9999993 -8.143436e-16 0
-9.9999993 1.8113296e-15 0
-9.9999993 -1.6990307e-15 0
-9.9999993 8.5226133e-13 0
-9.9999993 8.5387871e-13 0
-9.9999992 -1.0684543e-15 0
-9.9999992 -3.2509701e-12 0
-9.9999992 -7.1073659e-12 0
-9.9999992 9.3088047e-13 0
-9.9999992 4.7809416e-12 0
-9.9999991 -1.0724032e-15 0
-9.9999991 -3.1990933e-16 0
-9.9999991 1.8702022e-12 0
-9.9999991 1.8273749e-12 0
-9.9999991 5.4025679e-11 0
-9.9999991 2.5537114e-08 0
-9.9999991 -1.7049418e-05 0
-9.999999 -0.0028257867 0
-9.999999 0.0028257867 0
-9.999999 1.7049418e-05 0
-9.999999 -2.5537115e-08 0
-9.999999 -5.3871867e-11 0
-9.999999 1.9472436e-13 0
-9.999999 -1.1891415e-12 0
-9.999999 1.3024346e-13 0
-9.999999 1.7002605e-12 0
-9.999999 8.8983213e-13 0
-9.999999 5.0461278e-13 0
-9.999999 -9.5459135e-17 0
-9.999999 1.5574111e-13 0
-9.999999 1.5428918e-13 0
-9.999999 2.958835e-16 0
-9.999999 1.6786805e-16 0
-9.9999989 1.2627834e-14 0
-9.9999991 1.9066018e-12 0
-9.9999991 1.8930629e-12 0
-9.9999991 5.7408117e-13 0
-9.9999991 -3.2791944e-12 0
-9.9999991 -4.4036855e-12 0
-9.9999991 5.3518518e-11 0
-9.9999991 2.5541148e-08 0
-9.9999991 -1.7049412e-05 0
-9.9999991 -0.0028257867 0
-9.9999991 0.0028257866 0
-9.9999991 1.7049414e-05 0
-9.9999991 -2.5536549e-08 0
-9.9999991 -5.3451522e-11 0
-9.9999991 6.0894288e-13 0
-9.9999991 -9.7207781e-15 0
-9.999999 -3.9458197e-14 0
-9.999999 -4.0441053e-14 0
-9.999999 4.0804526e-15 0
-9.999999 4.7716776e-16 0
-9.999999 1.9447587e-15 0
-9.999999 1.4284488e-14 0
-9.999999 -4.4295703e-12 0
-9.999999 3.3803933e-12 0
-9.999999 1.2286708e-11 0
-9.999999 -6.9006618e-11 0
-9.999999 7.3406136e-11 0
-9.999999 9.180729e-11 0
-9.999999 9.1813253e-11 0
-9.999999 9.1814824e-11 0
-9.999999 9.1433017e-11 0
-9.9999989 1.4550088e-10 0
-9.9999989 2.5628714e-08 0
-9.999999 -1.7049326e-05 0
-9.999999 -0.0028257865 0
-9.9999989 0.0028257866 0
-9.9999988 1.7050089e-05 0
-9.9999988 -2.544519e-08 0
-9.9999988 3.8063703e-11 0
-9.9999988 1.4379722e-10 0
-9.9999988 -1.3252741e-12 0
-9.9999988 2.0802387e-12 0
-9.9999988 5.5010852e-13 0
-9.9999988 5.5293483e-13 0
-9.9999988 8.7793421e-13 0
-9.9999988 5.4853969e-12 0
-9.9999988 -6.3183743e-11 0
-9.9999988 7.9529857e-11 0
-9.9999987 9.3126438e-11 0
-9.9999988 8.9826547e-11 0
-9.9999988 -9.3802196e-10 0
-9.9999982 4.8798593e-07 0
-9.9999982 4.869678e-07 0
-9.9999982 4.8696437e-07 0
-9.9999982 4.8696808e-07 0
-9.9999982 4.8696912e-07 0
-9.9999982 4.8701853e-07 0
-9.9999982 5.1249342e-07 0
-9.9999977 -1.6075397e-05 0
-9.9999977 -0.0028248121 0
-9.9999831 0.0028257855 0
-9.9999976 1.8025575e-05 0
-9.9999976 9.4848786e-07 0
-9.9999976 9.7396769e-07 0
-9.9999976 9.7504475e-07 0
-9.9999977 4.8611859e-07 0
-9.9999977 4.8714162e-07 0
-9.9999977 4.8714737e-07 0
-9.9999977 4.8714732e-07 0
-9.9999977 4.8714746e-07 0
-9.9999977 4.8714375e-07 0
-9.9999977 4.8594237e-07 0
-9.9999972 9.7521607e-07 0
-9.9999971 9.7423729e-07 0
-9.9999971 9.7422867e-07 0
-9.9999971 9.7424683e-07 0
-9.9999971 9.7439307e-07 0
-9.999997 9.7432483e-07 0
-9.999997 9.7432488e-07 0
-9.999997 9.743231e-07 0
-9.999997 9.7432336e-07 0
-9.999997 9.7438054e-07 0
-9.9999969 9.9983234e-07 0
-9.9999968 -1.6075049e-05 0
-9.9999968 -0.0028248115 0
-9.9999822 0.0028257853 0
-9.9999967 1.8027039e-05 0
-9.9999967 9.4884018e-07 0
-9.9999967 9.7431651e-07 0
-9.9999967 9.7437399e-07 0
-9.9999967 9.7422796e-07 0
-9.9999967 9.742793e-07 0
-9.9999967 9.7427723e-07 0
-9.9999966 9.7427723e-07 0
-9.9999966 9.7427929e-07 0
-9.9999966 9.742648e-07 0
-9.9999965 9.7186654e-07 0
-9.9999924 4.3858023e-06 0
-9.9999924 4.3833237e-06 0
-9.9999924 4.3833145e-06 0
-9.9999924 4.3833177e-06 0
-9.9999924 4.3833184e-06 0
-9.9999924 4.3833157e-06 0
-9.9999924 4.383138e-06 0
-9.9999924 4.3835183e-06 0
-9.9999923 4.3835479e-06 0
-9.9999923 4.3836009e-06 0
-9.9999923 4.4085967e-06 0
-9.9999917 -1.2178395e-05 0
-9.9999917 -0.002820914 0
-9.9999187 0.0028257822 0
-9.9999917 2.1928917e-05 0
-9.9999916 4.8450061e-06 0
-9.9999916 4.8704638e-06 0
-9.9999916 4.8704871e-06 0
-9.9999916 4.8705557e-06 0
-9.9999916 4.8705603e-06 0
-9.9999916 4.8705617e-06 0
-9.9999915 4.8705616e-06 0
-9.9999915 4.8705599e-06 0
-9.9999915 4.87056e-06 0
-9.9999915 4.8706132e-06 0
-9.9999915 4.8709584e-06 0
-9.9999915 4.8707827e-06 0
-9.9999915 4.8707512e-06 0
-9.9999915 4.8708194e-06 0
-9.9999914 4.8708247e-06 0
-9.9999914 4.8708153e-06 0
-9.9999914 4.8681574e-06 0
-9.9999887 7.3082813e-06 0
-9.9999887 7.3056224e-06 0
-9.9999886 7.3056668e-06 0
-9.9999886 7.3311544e-06 0
-9.9999886 -9.7437127e-06 0
-9.9999886 -0.002818478 0
-9.9998791 0.0028257801 0
-9.9999886 2.436677e-05 0
-9.9999886 7.2801714e-06 0
-9.9999886 7.3056461e-06 0
-9.9999886 7.3052044e-06 0
-9.9999881 7.7931401e-06 0
-9.999988 7.7926862e-06 0
-9.999988 7.7927074e-06 0
-9.999988 7.7926438e-06 0
-9.999988 7.7928026e-06 0
-9.9999879 7.7928153e-06 0
-9.9999879 7.7928154e-06 0
-9.999988 7.7928116e-06 0
-9.999988 7.792752e-06 0
-9.999988 7.7923972e-06 0
-9.9999874 8.2803364e-06 0
-9.9999874 8.2798605e-06 0
-9.9999873 8.2798566e-06 0
-9.9999873 8.2798909e-06 0
-9.9999873 8.2802668e-06 0
-9.9999873 8.2800453e-06 0
-9.9999873 8.2801033e-06 0
-9.9999873 8.3056394e-06 0
-9.9999873 -8.7692942e-06 0
-9.9999873 -0.0028175038 0
-9.9998803 0.0028258442 0
-10.000006 2.4375068e-05 0
-10.000005 7.7681996e-06 0
-10.000005 8.2802262e-06 0
-10.000005 8.2801351e-06 0
-10.000004 8.2798959e-06 0
-10.000004 9.2543544e-06 0
-10.000003 9.7415481e-06 0
-10.000002 9.7401597e-06 0
-10.000002 1.0716164e-05 0
-10.000002 1.0715087e-05 0
-10.000002 1.0715106e-05 0
-10.000002 1.0715092e-05 0
-10.000002 1.0714239e-05 0
-10.000001 1.1202878e-05 0
-10.000001 1.1202073e-05 0
-10.000001 1.1689118e-05 0
-10.000001 1.1689107e-05 0
-10.000001 1.1689105e-05 0
-10.000001 1.1689106e-05 0
-10.000001 1.1689187e-05 0
-9.999993 1.1688333e-05 0
-9.999993 1.1713772e-05 0
-9.999993 -5.3682579e-06 0
-9.9999932 -0.0028141575 0
-10.002478 0.0026693249 0
-10.002802 2.8947369e-05 0
-10.002802 1.1669497e-05 0
-10.002801 1.2183125e-05 0
-10.002801 1.2669789e-05 0
-10.002801 1.2669772e-05 0
-10.002801 1.2669867e-05 0
-10.002801 1.2183039e-05 0
-10.002809 1.2181317e-05 0
-10.002809 1.2182258e-05 0
-10.002808 1.2182033e-05 0
-10.002808 1.2669711e-05 0
-10.002808 1.2669525e-05 0
-10.002808 1.3157204e-05 0
-10.002808 1.3157301e-05 0
-10.002808 1.3157248e-05 0
-10.002808 1.3157249e-05 0
-10.002808 1.3157249e-05 0
-10.002808 1.3157248e-05 0
-10.002808 1.3157243e-05 0
-10.002807 1.3646173e-05 0
-10.002807 1.3644508e-05 0
-10.002799 1.3668959e-05 0
-10.002799 -3.1070268e-06 0
-10.002643 -0.0026556923 0
-6.9256094 -0.60624424 0
-6.8389577 0.25629327 0
-10.021922 0.076793412 0
-10.021855 0.08571267 0
-10.021858 0.085348381 0
-10.021857 0.085551059 0
-10.021858 0.085339823 0
-10.021856 0.085586539 0
-10.021857 0.085480616 0
-10.021859 0.085306004 0
-10.021862 0.084940342 0
-10.021838 0.08772522 0
-10.02184 0.087456607 0
-10.021832 0.088502213 0
-10.021832 0.088443238 0
-10.022051 0.058698959 0
-10.02205 0.05886141 0
-10.022053 0.058428932 0
-10.022053 0.058378505 0
-10.02201 0.065270255 0
-10.022011 0.065102202 0
-10.02201 0.065269465 0
-10.022001 0.066654707 0
-10.022002 0.065739074 0
-10.021915 0.030440216 0
10.008371 0.10235796 0
10.009263 -0.1606927 0
10.021235 -0.027590842 0
10.02119 -0.047006398 0
10.021191 -0.046776234 0
10.021191 -0.046820634 0
10.021192 -0.046552924 0
10.02119 -0.046859058 0
10.021191 -0.04671648 0
10.021193 -0.046208369 0
10.021195 -0.045793214 0
10.021179 -0.049203673 0
10.021181 -0.048872667 0
10.021176 -0.049994206 0
10.021176 -0.04994176 0
10.021268 -0.024013836 0
10.021259 -0.024097457 0
10.02126 -0.023601314 0
10.02126 -0.023501448 0
10.021245 -0.029339291 0
10.021247 -0.028849801 0
10.021245 -0.029341011 0
10.02124 -0.03107621 0
10.021255 -0.02502885 0
10.019199 0.20247774 0
-8.5989979 -0.073980736 0
-10.090778 0.14154794 0
-10.022655 0.023152704 0
-10.022471 0.041048042 0
-10.02247 0.040828964 0
-10.022469 0.040856668 0
-10.022471 0.040604083 0