# vtk DataFile Version 4.0
hesp visualization file
ASCII
DATASET UNSTRUCTURED_GRID
POINTS 1250 double
27.984154 -6.6053937 4
27.921255 -5.0535862 4
31.030259 -6.4162559 4
26.611554 2.1743312 4
31.963205 6.291515 4
33.618739 3.6980099 4
33.310384 -4.5405808 4
36.293185 10.441617 4
30.328149 13.334165 4
29.346511 8.3113826 4
33.983695 12.266084 4
33.102211 11.655704 4
32.584397 11.620308 4
31.461652 14.022279 4
29.620867 21.025535 4
34.981592 13.173277 4
27.274365 26.024337 4
28.949531 18.833318 4
30.290816 21.524448 4
30.825542 31.074329 4
29.273249 26.613908 4
31.428003 28.099709 4
32.541269 21.692539 4
30.792473 48.488469 4
30.973537 39.200891 4
43.330096 -11.763168 4
26.738363 -4.5788465 4
25.096435 -9.2316577 4
30.553699 1.6360184 4
27.864685 7.3559215 4
27.387064 2.8804918 4
25.655012 -1.1346516 4
28.491271 -2.5365597 4
28.664835 1.5451374 4
28.514875 3.1923804 4
26.947162 9.6729398 4
35.034401 7.6868875 4
30.409202 15.325965 4
28.993212 10.350269 4
32.83123 11.801122 4
28.11906 23.322323 4
28.596423 13.196895 4
26.176579 18.135401 4
33.951518 18.937753 4
32.117684 24.998222 4
29.406689 32.172421 4
29.983112 21.137082 4
30.779612 31.881156 4
30.537764 42.934258 4
30.275471 33.424455 4
31.861425 -6.3189401 4
31.590718 -14.937247 4
30.225005 -3.7374868 4
34.361132 2.2669766 4
39.084716 -8.3149832 4
36.360288 2.2254945 4
31.007338 -4.9328197 4
35.146084 10.622236 4
33.165938 9.5379762 4
33.976326 9.3593773 4
30.331639 6.9925688 4
28.537607 10.208195 4
31.239527 10.701075 4
33.328825 7.3727577 4
31.847542 12.642695 4
30.858888 12.688717 4
30.720456 15.918816 4
36.820698 21.189258 4
31.276505 16.488927 4
28.283591 31.123803 4
27.556426 21.100581 4
36.64927 23.635175 4
30.516594 19.775299 4
34.056189 32.490062 4
32.250756 26.784319 4
38.463276 -18.401822 4
29.650061 -4.1626457 4
31.187519 8.7179874 4
35.384134 -9.0326121 4
26.644376 5.5869895 4
28.680933 7.7234382 4
26.470505 8.8509358 4
32.807389 9.4489132 4
29.279502 11.196208 4
33.274344 8.5844256 4
28.707006 14.587999 4
32.094853 7.7111137 4
30.000648 16.266246 4
33.634283 17.18474 4
30.799343 9.1364496 4
32.48445 16.633842 4
28.524845 14.077298 4
33.94571 12.748821 4
32.130423 19.359572 4
29.223767 22.869727 4
36.836483 11.030192 4
29.372798 24.095249 4
29.148407 27.407979 4
29.731902 29.844704 4
32.660377 47.376969 4
35.909462 -13.136296 4
26.813085 -13.548159 4
34.780363 1.240642 4
35.09025 6.6171821 4
23.521414 -5.6759093 4
26.730291 6.4148722 4
31.206276 3.998604 4
28.436313 2.8848741 4
36.194628 6.753012 4
35.669006 4.1624817 4
31.534531 7.1980636 4
34.323912 4.0534057 4
34.389853 11.998729 4
31.514144 9.104773 4
34.819045 15.817032 4
37.319169 18.371554 4
33.373613 13.949513 4
30.906389 16.170844 4
32.063846 18.544652 4
36.292543 22.089808 4
31.608048 27.462351 4
34.599351 28.062637 4
36.219994 25.465648 4
31.596679 31.109273 4
32.152113 28.878521 4
27.872367 -10.270065 4
27.170305 -12.965595 4
37.950281 9.2137423 4
34.187872 5.3441624 4
31.927046 2.2606119 4
36.607792 9.5623745 4
32.891983 6.0176522 4
36.10961 5.6611919 4
34.590624 13.127166 4
39.463771 17.60307 4
34.881414 15.160284 4
34.988807 16.162224 4
32.310186 21.319107 4
39.820231 15.966559 4
31.467516 12.989264 4
33.476134 24.335295 4
31.969662 22.953064 4
34.959742 23.608264 4
35.134506 27.634986 4
36.088036 31.403032 4
32.311928 32.056936 4
32.450536 20.015168 4
29.1194 29.355215 4
36.32986 37.878012 4
28.667834 32.61967 4
30.688195 3.841448 4
24.808507 -15.966269 4
34.426178 -0.99689625 4
30.639506 -3.9108661 4
30.836164 -1.5664524 4
29.824171 5.7118434 4
30.159925 6.4785513 4
33.49123 8.6827653 4
31.756457 10.733765 4
28.356759 10.39454 4
38.11599 12.216011 4
30.600558 13.90285 4
30.974788 11.224791 4
32.615942 16.357258 4
28.153955 18.45892 4
27.630548 15.590212 4
30.252964 19.945081 4
28.838047 23.105725 4
34.598685 28.816807 4
32.433927 23.424645 4
31.461196 26.316701 4
32.34587 27.258096 4
31.322015 32.43311 4
33.652647 27.104484 4
26.165709 36.86918 4
45.469378 -7.5943467 4
31.681765 -2.2843034 4
32.843168 -8.3982594 4
32.334148 4.9466221 4
35.136719 8.9117822 4
27.4125 -8.9731276 4
35.193579 8.6391013 4
25.121057 6.3082304 4
35.111278 4.583536 4
35.677109 5.8654286 4
33.326035 11.545001 4
29.214348 13.860812 4
35.005605 22.21826 4
34.214371 10.33121 4
35.549338 15.367279 4
33.11565 19.126256 4
36.238473 15.860617 4
31.061705 23.353358 4
36.301673 21.051735 4
29.804215 22.546168 4
30.986816 18.681441 4
27.49601 34.387771 4
34.596994 32.372925 4
32.790128 29.796388 4
43.135414 39.420399 4
30.689528 4.8328951 4
33.130736 3.1001817 4
32.447723 0.21298789 4
33.966587 -11.175947 4
31.849358 -1.1323919 4
30.129414 4.0919662 4
34.63166 3.0914112 4
35.911924 8.6378833 4
34.54088 11.702807 4
35.709298 10.430582 4
31.357848 17.115876 4
32.477325 19.459037 4
30.529424 15.771915 4
29.452787 14.338783 4
36.696133 23.035091 4
37.033244 17.689153 4
31.451224 12.506435 4
32.619929 8.5689605 4
30.80318 14.597813 4
35.549065 19.401301 4
37.740592 25.409876 4
37.263051 29.21668 4
32.606712 21.953915 4
37.055327 32.837855 4
33.772224 30.518146 4
32.90606 -2.3187377 4
24.668282 -6.0438353 4
36.405853 -3.5600525 4
34.16751 11.739488 4
29.794398 3.0110246 4
33.72918 6.7182847 4
35.769737 7.6705316 4
38.69385 9.0364454 4
35.481816 14.341644 4
39.574027 8.4142862 4
33.777668 12.377008 4
29.987422 12.135771 4
32.110034 17.731165 4
37.030327 11.939736 4
32.896548 18.208385 4
32.714041 19.090436 4
35.103366 20.43708 4
32.753924 27.314413 4
33.705605 21.270895 4
34.347655 26.116258 4
32.637245 24.046054 4
30.210021 25.766602 4
32.658668 30.262705 4
35.211994 32.343253 4
24.763296 34.123856 4
25.878313 -8.8807305 4
32.149636 -2.189851 4
32.721026 -0.38590252 4
27.77084 -1.6473471 4
41.014573 4.9865031 4
34.152659 2.9257054 4
36.724649 8.6860188 4
34.8003 2.3224597 4
35.879516 8.1483825 4
35.451968 12.025259 4
34.759987 17.202688 4
36.956068 15.057461 4
40.075362 10.943066 4
39.493202 9.8838528 4
32.542925 18.203835 4
32.130649 17.975395 4
36.177335 14.506113 4
28.79085 21.663956 4
34.45333 19.522076 4
35.64174 24.323336 4
35.874171 27.477766 4
31.453249 20.974649 4
33.91434 23.397746 4
29.533034 30.110114 4
29.390069 33.522999 4
38.20259 -13.180615 4
30.273392 -3.2329632 4
28.687059 3.5249577 4
37.318638 5.9313365 4
35.903645 6.6558293 4
39.428908 5.7952495 4
35.268785 5.5901635 4
30.723081 8.7076075 4
35.831264 11.60285 4
32.28604 10.103349 4
35.304122 15.009438 4
32.743779 13.695097 4
34.163224 18.751877 4
31.568103 14.423321 4
37.89273 21.324941 4
37.343171 21.725093 4
34.913246 18.622389 4
33.487409 22.248138 4
33.86289 24.23357 4
34.282512 22.018624 4
33.49673 25.556267 4
33.789661 24.675724 4
29.921662 32.137464 4
29.240399 39.6471 4
40.617133 38.811525 4
33.708467 -4.2195861 4
33.97681 1.2245072 4
32.220627 1.4274747 4
29.096665 5.2039142 4
32.536216 3.7503014 4
34.918375 -1.5993725 4
37.332362 7.386574 4
38.704103 11.025071 4
39.075308 9.4372252 4
32.264292 9.8322056 4
38.688887 8.0967019 4
33.525684 14.596008 4
33.535093 16.088877 4
31.684389 15.39338 4
33.119308 16.136161 4
50.28866 15.277622 4
35.219961 25.112629 4
34.360393 24.129078 4
34.346935 22.754111 4
40.679083 30.873549 4
35.652142 30.291643 4
34.796113 26.924538 4
36.207894 28.545403 4
33.517738 36.474605 4
33.392721 39.258719 4
34.729511 -7.9515283 4
33.985235 -1.0049984 4
35.381443 3.9080802 4
33.769747 4.0822927 4
30.769265 2.038739 4
38.723011 5.9256892 4
34.149682 7.0352829 4
36.198249 7.6519707 4
34.488648 6.2448405 4
33.6306 6.22786 4
38.803766 9.6883403 4
36.389715 13.262789 4
29.891386 13.770017 4
37.147206 13.878741 4
39.667108 18.438841 4
36.602814 15.142356 4
38.242205 19.750617 4
36.675914 17.49376 4
35.617269 17.357679 4
36.754565 21.819549 4
37.39023 23.991008 4
33.431234 23.152037 4
33.820968 25.773757 4
38.685563 34.790053 4
33.910833 36.005984 4
37.341879 0.33134937 4
34.1275 -10.868278 4
34.541297 0.39473638 4
34.138571 1.7076973 4
34.344816 2.7012968 4
35.396283 5.2824286 4
34.687723 4.6349958 4
31.157979 6.6283557 4
36.279754 15.15309 4
36.976868 7.723281 4
34.116604 16.315769 4
35.721333 12.427371 4
39.493106 15.841677 4
35.365451 17.071539 4
34.007241 17.68287 4
32.275629 18.901451 4
34.878057 17.405629 4
37.656042 20.993086 4
36.101504 23.714751 4
34.861187 26.645726 4
33.772547 26.234779 4
32.898776 29.45663 4
37.357994 20.946375 4
34.10775 34.168023 4
37.392093 32.128666 4
33.486885 -0.7084488 4
37.311734 -0.74294834 4
32.984764 2.3327521 4
31.000796 4.7308002 4
34.836164 4.07285 4
38.523982 9.3038271 4
36.523787 12.496786 4
37.372197 12.822468 4
36.11227 10.171796 4
38.369651 14.053875 4
36.505755 16.344616 4
37.651836 16.781629 4
34.918735 19.364142 4
39.134611 19.482467 4
33.883484 17.071292 4
38.961843 16.629459 4
36.935495 19.026324 4
35.59032 17.93159 4
38.808225 14.782395 4
37.784674 20.04382 4
37.178057 20.61981 4
37.752437 29.286858 4
38.253565 33.598759 4
32.515433 26.003728 4
30.162102 32.769716 4
38.511829 -0.67809334 4
36.257803 2.7296754 4
33.837199 -1.2737237 4
36.763711 3.7275932 4
34.629512 5.5669013 4
35.143263 7.3781763 4
40.724276 10.400483 4
36.409857 5.0859259 4
34.463682 7.5599644 4
36.299817 12.944001 4
32.908672 16.873231 4
36.698187 9.8621464 4
35.942738 12.709542 4
37.54178 19.406583 4
37.585066 17.650334 4
37.029809 15.514951 4
35.006799 17.14781 4
35.64941 21.654088 4
37.531646 20.07454 4
34.57568 25.977465 4
34.909389 25.59933 4
35.288954 25.507287 4
36.294888 25.116631 4
30.519112 33.722796 4
34.27657 30.019948 4
35.199984 -0.68649337 4
37.934646 1.7077562 4
35.766581 3.5840899 4
36.925197 2.2211683 4
38.507492 4.7795885 4
36.49404 6.5776519 4
37.505133 8.2495172 4
36.809447 10.474668 4
35.221812 9.9691313 4
37.495611 13.916828 4
37.55371 15.713727 4
37.701865 14.967901 4
37.948992 13.749854 4
36.28502 17.92523 4
34.500619 17.387551 4
38.016334 23.374224 4
36.898838 19.899253 4
36.114802 20.495744 4
37.273482 22.25848 4
39.792369 21.479552 4
37.673771 24.354163 4
36.987332 23.532585 4
35.958227 28.505943 4
35.552624 24.822409 4
36.468995 31.6782 4
35.702456 -2.4155205 4
[...]
POINT_DATA 1250
SCALARS m double
LOOKUP_TABLE default
1
1
1
1
1
1
1
1
1
1
1
1
1
1
1
1
1
1
1
1
1
1
1
1
1
1
1
1
1
1
1
1
1
1
1
1
1
1
1
1
1
1
1
1
1
1
1
1
1
1
1
1
1
1
1
1
1
1
1
1
1
1
1
1
1
1
1
1
1
1
1
1
1
1
1
1
1
1
1
1
1
1
1
1
1
1
1
1
1
1
1
1
1
1
1
1
1
1
1
1
1
1
1
1
1
1
1
1
1
1
1
1
1
1
1
1
1
1
1
1
1
1
1
1
1
1
1
1
1
1
1
1
1
1
1
1
1
1
1
1
1
1
1
1
1
1
1
1
1
1
1
1
1
1
1
1
1
1
1
1
1
1
1
1
1
1
1
1
1
1
1
1
1
1
1
1
1
1
1
1
1
1
1
1
1
1
1
1
1
1
1
1
1
1
1
1
1
1
1
1
1
1
1
1
1
1
1
1
1
1
1
1
1
1
1
1
1
1
1
1
1
1
1
1
1
1
1
1
1
1
1
1
1
1
1
1
1
1
1
1
1
1
1
1
1
1
1
1
1
1
1
1
1
1
1
1
1
1
1
1
1
1
1
1
1
1
1
1
1
1
1
1
1
1
1
1
1
1
1
1
1
1
1
1
1
1
1
1
1
1
1
1
1
1
1
1
1
1
1
1
1
1
1
1
1
1
1
1
1
1
1
1
1
1
1
1
1
1
1
1
1
1
1
1
1
1
1
1
1
1
1
1
1
1
1
1
1
1
1
1
1
1
1
1
1
1
1
1
1
1
1
1
1
1
1
1
1
1
1
1
1
1
1
1
1
1
1
1
1
1
1
1
1
1
1
1
1
1
1
1
1
1
1
1
1
1
1
1
1
1
1
1
1
1
1
1
1
1
1
1
1
1
1
1
1
1
1
1
1
1
1
1
1
1
1
1
1
1
1
1
1
1
1
1
1
1
1
1
1
1
1
1
1
1
1
1
1
1
1
1
1
1
1
1
1
1
1
1
1
1
1
1
1
1
1
1
1
1
1
1
1
1
1
1
1
1
1
1
1
1
1
1
1
1
1
1
1
1
1
1
1
1
1
1
1
1
1
1
1
1
1
1
1
1
1
1
1
1
1
1
1
1
1
1
1
1
1
1
1
1
1
1
1
1
1
1
1
1
1
1
1
1
1
1
1
1
1
1
1
1
1
1
1
1
1
1
1
1
1
1
1
1
1
1
1
1
1
1
1
1
1
1
1
1
1
1
1
1
1
1
1
1
1
1
1
1
1
1
1
1
1
1
1
1
1
1
1
1
1
1
1
1
1
1
1
1
1
1
1
1
1
1
1
1
1
1
1
1
1
1
1
1
1
1
1
1
1
1
1
1
1
1
1
1
1
1
1
1
1
1
1
1
1
1
1
1
1
1
1
1
1
1
1
1
1
1
1
1
1
1
1
1
1
1
1
1
1
1
1
1
1
1
1
1
1
1
1
1
1
1
1
1
1
1
1
1
1
1
1
1
1
1
1
1
1
1
1
1
1
1
1
1
1
1
1
1
1
1
1
1
1
1
1
1
1
1
1
1
1
1
1
1
1
1
1
1
1
1
1
1
1
1
1
1
1
1
1
1
1
1
1
1
1
1
1
1
1
1
1
1
1
1
1
1
1
1
1
1
1
1
1
1
1
1
1
1
1
1
1
1
1
1
1
1
1
1
1
1
1
1
1
1
1
1
1
1
1
1
1
1
1
1
1
1
1
1
1
1
1
1
1
1
1
1
1
1
1
1
1
1
1
1
1
1
1
1
1
1
1
1
1
1
1
1
1
1
1
1
1
1
1
1
1
1
1
1
1
1
1
1
1
1
1
1
1
1
1
1
1
1
1
1
1
1
1
1
1
1
1
1
1
1
1
1
1
1
1
1
1
1
1
1
1
1
1
1
1
1
1
1
1
1
1
1
1
1
1
1
1
1
1
1
1
1
1
1
1
1
1
1
1
1
1
1
1
1
1
1
1
1
1
1
1
1
1
1
1
1
1
1
1
1
1
1
1
1
1
1
1
1
1
1
1
1
1
1
1
1
1
1
1
1
1
1
1
1
1
1
1
1
1
1
1
1
1
1
1
1
1
1
1
1
1
1
1
1
1
1
1
1
1
1
1
1
1
1
1
1
1
1
1
1
1
1
1
1
1
1
1
1
1
1
1
1
1
1
1
1
1
1
1
1
1
1
1
1
1
1
1
1
1
1
1
1
1
1
1
1
1
1
1
1
1
1
1
1
1
1
1
1
1
1
1
1
1
1
1
1
1
1
1
1
1
1
1
1
1
1
1
1
1
1
1
1
1
1
1
1
1
1
1
1
1
1
1
1
1
1
1
1
1
1
1
1
1
1
1
1
1
1
1
1
1
1
1
1
1
1
1
1
1
1
1
1
1
1
1
1
1
1
1
1
1
1
1
1
1
1
1
1
1
1
1
1
1
1
1
1
1
1
1
1
1
1
1
1
1
1
1
1
1
1
1
1
1
1
1
1
1
1
1
1
1
1
1
1
1
1
1
1
1
1
1
1
1
1
1
1
1
1
1
1
1
1
1
1
1
1
1
1
1
1
1
1
1
1
1
1
1
1
1
1
1
1
1
1
1
1
1
1
1
1
1
1
1
1
1
1
1
1
1
1
1
1
1
1
1
1
1
1
1
1
1
1
1
1
1
1
1
1
1
1
1
1
1
1
1
1
1
1
1
1
1
1
1
1
1
1
1
1
1
1
1
1
1
1
1
1
1
1
1
1
1
1
1
1
1
1
1
1
1
1
1
1
1
1
1
1
1
1
VECTORS v double
1.6616537 -8.8870199 0
3.6569327 -10.049312 0
-1.2503857 -16.339963 0
-5.7623607 -3.2304356 0
11.245881 6.777113 0
-0.68549843 4.494917 0
-2.1287443 -23.020367 0
-4.7888759 -4.3269771 0
-1.9472857 1.9365956 0
-8.0180508 -4.2477265 0
-5.9948555 0.93809707 0
12.774352 13.344936 0
2.8334743 -6.4630973 0
6.820738 -1.8960564 0
4.7550269 6.6198311 0
5.6758485 -8.1663146 0
5.5330916 5.7224868 0
-8.3375681 -7.8266642 0
-2.4455473 -6.8917484 0
-4.6712835 0.84420327 0
-10.299651 16.828935 0
-1.3538023 15.871835 0
10.773593 0.12249679 0
0.20851345 22.962115 0
1.7558906 11.109591 0
8.8399697 -9.0826405 0
-0.24353907 -9.6518046 0
-8.9079668 -14.3238 0
6.8846511 -4.4753264 0
5.5087254 -4.0576224 0
-3.1711518 0.93017022 0
-7.6083363 -7.2226877 0
23.194614 -27.38232 0
1.0644178 -4.2558707 0
-2.6666046 -5.8877757 0
-13.127257 2.2289652 0
-3.4809154 -7.344073 0
11.956497 -11.583995 0
-3.7437803 -11.723295 0
7.7673711 1.4484421 0
4.9063796 -6.8839944 0
1.9843673 -1.1568693 0
-0.89966964 2.2496792 0
-4.9442417 6.7937626 0
1.0791814 5.8882734 0
0.33454705 -1.0247512 0
-16.56671 3.9923821 0
-4.155104 -0.070241318 0
1.4688874 13.66397 0
-1.4816935 3.7921719 0
3.2916768 -9.9543731 0
3.108672 -15.90093 0
1.7799876 -19.960054 0
6.6704254 0.14999041 0
10.755217 -12.551486 0
8.9866106 -8.9891006 0
3.7258606 -12.727598 0
-7.8356109 -0.55997064 0
-4.2068573 -10.030881 0
10.582533 -5.4788404 0
1.5690787 -5.2942971 0
6.4000497 -10.550744 0
1.5021592 -9.1007835 0
-1.2609352 -5.460266 0
-5.5770636 3.3090359 0
-0.73616236 0.89255473 0
-4.9158967 -5.6752491 0
2.3351384 1.0349037 0
1.7886875 -2.4471277 0
5.9268996 4.901891 0
-6.6201676 -2.4441443 0
1.4481818 15.182619 0
-6.0159041 10.9114 0
-3.4119687 7.7028958 0
7.5820787 -1.2705873 0
3.9466542 -13.879275 0
-3.3117368 -4.9425651 0
-2.6953526 4.6265866 0
5.1166379 -14.873693 0
2.8087066 -1.9808862 0
-7.3706814 -15.19513 0
3.8779059 -2.1197002 0
3.5067337 -4.9595682 0
-0.59008645 -7.5608863 0
9.1789602 -8.8221939 0
-9.6670765 1.3140994 0
-1.5741306 3.5933391 0
-6.3979912 11.099694 0
5.8962354 -9.8575192 0
3.4754332 -17.293625 0
-5.0864943 -13.099893 0
3.1473501 -4.7306941 0
4.5898274 -5.7480637 0
3.9426675 -0.49356489 0
10.361726 11.572738 0
4.6941795 -6.9324319 0
-0.36036887 12.971011 0
5.3289163 2.6594675 0
-1.9133757 8.4419673 0
0.47110716 14.494982 0
3.3724343 -12.746329 0
-5.5558987 -14.750689 0
-1.6809916 -13.367358 0
1.9005707 -3.7781146 0
-8.2189933 -8.5534835 0
0.57088366 -4.3451751 0
-1.2250924 -2.1697092 0
4.6890649 -13.798916 0
1.744621 -7.318506 0
-1.8320985 3.0610521 0
-7.4595825 6.0681143 0
-2.6914432 -11.200176 0
-3.5183154 -4.5461987 0
-5.9578671 -15.065049 0
-15.030484 -0.5238802 0
-1.5394487 6.2162602 0
9.1133045 -8.5969819 0
4.2717396 -7.8217469 0
6.4792096 -0.85921793 0
-0.47906181 10.816611 0
-4.0208602 3.208026 0
2.4605249 8.6511815 0
-1.6748518 0.34785872 0
-2.5126043 9.4949035 0
10.121118 9.4028283 0
-2.3606038 -9.0026679 0
0.084409494 -22.498758 0
9.0719455 3.3962893 0
-5.5999789 -12.341053 0
1.5529613 0.053588093 0
-1.8472484 5.4434225 0
14.560029 3.20998 0
2.0530811 -15.269933 0
-3.048372 10.839923 0
11.626308 9.1627847 0
2.3876062 -0.93127371 0
-10.552827 11.388584 0
3.5817071 10.472874 0
5.3494655 -2.4588531 0
13.831361 3.8157352 0
-4.8518479 5.6841233 0
-6.499604 11.354178 0
2.0503696 -6.4106932 0
-0.0040352877 10.194533 0
-6.7199968 6.0052628 0
6.9317558 7.1473162 0
0.23264827 9.8785455 0
-1.7760313 -4.1643765 0
2.7835564 9.3004512 0
0.60298121 13.142354 0
-4.0986695 9.9034592 0
-7.1221573 -15.01762 0
-6.2738556 -14.136978 0
2.6648202 -11.689257 0
-1.0449877 -7.912972 0
-4.6655883 3.1437553 0
2.2078495 8.379862 0
16.934094 2.6920012 0
4.0874534 7.6795405 0
-4.6804319 2.148503 0
6.3829782 -1.5649311 0
-10.634538 1.9030325 0
-0.69790626 -1.5115413 0
-15.742553 -13.209953 0
0.44600186 -1.4775715 0
-1.2439228 -1.4969412 0
-7.8753509 0.45337835 0
12.25263 1.7187601 0
-2.0671839 11.142728 0
-2.4304986 14.996713 0
5.085286 9.9100505 0
-12.618031 9.7006758 0
6.5253867 17.526698 0
-2.7819936 20.161608 0
-2.2837092 10.291111 0
7.9152496 -6.5258364 0
-4.125938 -16.639183 0
0.10045248 -13.988757 0
3.2090043 -13.371458 0
3.6172446 -4.5081502 0
-4.6985232 -16.489768 0
-8.7238549 -1.5923603 0
-12.065804 -5.4531989 0
-3.3036161 -1.5809521 0
-13.505877 -13.087805 0
11.555824 -11.494531 0
-10.223388 -3.8225622 0
-3.111927 5.7481721 0
3.4851885 -5.9526391 0
0.67045696 -1.8508809 0
-11.500566 4.4554844 0
0.91692356 -1.7725098 0
3.1837018 5.7420508 0
5.9269002 -2.5723086 0
-2.0022913 -0.56129437 0
-3.7663706 -13.763854 0
-7.8391355 10.758818 0
4.2955749 9.9615031 0
-6.4829473 0.20780241 0
6.2745354 8.821453 0
0.76184214 -0.70438788 0
-2.3778952 -1.556596 0
2.7573455 -6.5987913 0
0.69080963 -25.685453 0
7.9171076 -19.724053 0
-4.7289432 -0.92047857 0
12.065932 -0.29743769 0
10.400123 -1.5546281 0
-7.4691194 2.6007592 0
5.5631795 -9.9769694 0
1.3991077 -0.14395763 0
-1.9379402 -3.4636093 0
-2.4931957 5.2859523 0
-8.1085995 3.9344921 0
7.3408356 2.1051821 0
4.8057869 -2.0848365 0
5.262486 2.2341937 0
4.4365813 -13.283123 0
-5.1438605 -6.208676 0
-0.80883146 0.99567996 0
9.4800593 5.2189858 0
3.9407652 3.6945207 0
-9.165231 -0.56892656 0
6.303208 7.0158023 0
2.6438728 12.414398 0
-8.9961004 -12.21139 0
-9.9747145 -15.061476 0
3.8618659 -18.093814 0
0.78522041 4.6836113 0
-12.235419 -8.4822584 0
-2.5451901 -6.3547905 0
14.024037 -4.4412736 0
4.7328307 2.9676581 0
0.14637718 6.8264792 0
5.4801934 -14.539099 0
-11.266479 0.25641554 0
-16.704025 -6.7091002 0
9.7744421 1.3251481 0
8.1902368 -4.3374468 0
5.3587861 7.1725413 0
-3.8105085 -3.6461816 0
-7.4952956 12.768695 0
4.9302583 10.14098 0
2.9404279 -2.7856327 0
-5.7887543 7.4933275 0
7.0379479 -9.1585659 0
-13.703116 -4.5664116 0
4.2970344 11.033746 0
5.6659278 7.7020666 0
-5.9266294 10.851704 0
-1.3911806 -9.9779864 0
-0.32466285 -9.6974422 0
4.2709052 -5.6714553 0
-10.729351 -1.5742291 0
4.9586968 0.016002238 0
-3.4509162 -3.4019492 0
20.900761 3.4322034 0
7.183453 -10.808237 0
-6.3874702 -1.6349294 0
-1.3732698 0.96969548 0
1.6545606 -3.5387253 0
2.7245296 -3.9112358 0
-11.200765 -20.337749 0
-3.1493152 3.5251321 0
11.773843 6.8257793 0
5.8598164 2.7084635 0
2.0996791 -0.97285173 0
-12.612656 4.4687896 0
3.1323126 -4.8607457 0
-7.4291672 8.1554053 0
-4.9754685 2.3563717 0
0.81451301 0.37525842 0
-5.0312367 1.1071109 0
5.4111061 6.1004457 0
0.57562028 1.0219562 0
0.83133241 -12.772029 0
8.0097285 -2.141961 0
2.9675656 7.3676524 0
-2.4511636 5.3360113 0
5.1732031 4.4578455 0
-11.428504 -2.0689609 0
-1.9590411 -3.2672489 0
-6.6443734 -4.6923202 0
-5.8060925 5.206944 0
5.7124598 -3.9269451 0
3.047652 7.2866748 0
0.62955161 -0.37725346 0
-2.5154497 -0.61611646 0
4.403402 5.2830042 0
3.5063358 3.6247493 0
7.5242998 4.1285145 0
6.6263059 -8.187106 0
-1.0456327 3.03832 0
14.608142 13.729119 0
3.1010354 16.435836 0
-5.2530103 1.2775622 0
-10.052554 1.0108974 0
-0.77815163 0.27046885 0
-7.4078538 21.981829 0
3.3742083 9.8830455 0
4.3080869 -8.0721458 0
-2.9061631 -10.543099 0
-9.7130767 -1.9361435 0
-5.2388502 -1.5877746 0
-11.438781 -6.6745644 0
-6.2817607 -6.3249689 0
4.1161411 -4.7451062 0
-1.9723029 2.646943 0
-1.0872461 -4.2707035 0
5.811541 -10.039371 0
10.181737 -15.714772 0
0.21016954 12.486641 0
-12.865449 1.5645658 0
-4.5131778 2.4075025 0
-5.0693573 0.14623625 0
11.979384 -7.2830737 0
-1.0611122 3.8626118 0
-3.352113 4.6441371 0
8.3081017 2.3642826 0
15.697058 5.956107 0
-0.55282537 5.0728162 0
-12.086352 -6.169844 0
1.7743021 4.059836 0
-4.5701131 9.4968766 0
4.6965706 19.015005 0
0.34327618 -14.635336 0
12.321108 -2.732995 0
-13.571491 6.9495 0
0.90393285 -7.2937374 0
-2.1221721 4.3382878 0
-4.4357792 -0.47866704 0
1.1792392 8.7709113 0
-4.6413113 -8.9700214 0
2.4249746 4.8988822 0
-3.6798086 -8.761735 0
6.0752771 -4.7829816 0
6.7950446 9.0604997 0
-14.28998 -9.8069028 0
-10.210262 -2.9488153 0
7.274919 -1.797556 0
-7.3371232 21.400989 0
-10.584366 1.8421437 0
-7.6637644 -8.2651594 0
-6.4097076 -5.2208333 0
3.7644998 -6.6535193 0
9.6372482 -2.6612066 0
-5.8913452 -1.915906 0
-2.9133425 5.869865 0
0.92476769 11.821446 0
-2.402038 14.281394 0
1.1079153 -13.942874 0
2.2518986 -15.670204 0
-15.422619 -9.8588962 0
1.7499707 -9.5708845 0
-0.25572566 -7.4658555 0
-7.4787411 -9.0521027 0
-1.7816979 1.1446078 0
-5.3182546 -9.0896031 0
-9.1387062 5.7391962 0
-0.35595001 -3.1004347 0
-1.1266973 -0.5553004 0
1.9070532 -3.299245 0
0.71263174 -2.307652 0
0.31382607 5.204622 0
-4.0225331 -8.6049872 0
-7.9157835 -3.1891253 0
-9.7051926 -3.5445114 0
-5.2582033 -4.8921474 0
2.1119348 9.2117341 0
-3.2180123 7.3314566 0
-3.1814109 -6.0748133 0
5.4127127 -2.9572551 0
-1.729947 -8.7897794 0
-4.0322954 9.2131389 0
-1.2702322 11.299672 0
-7.073803 -8.8222551 0
4.6830708 -0.88204251 0
-3.1990638 6.1151567 0
-9.0286658 -6.4213451 0
-7.3827733 -10.7222 0
7.7224295 0.25445175 0
16.269889 10.044274 0
-6.6573411 -3.4207366 0
-9.3984226 4.1945411 0
-8.5131881 -12.200958 0
8.1114737 0.59731794 0
0.59356804 -0.23978729 0
-5.8024552 2.0009183 0
3.9641694 -3.6333357 0
-15.376331 -5.9404934 0
-13.720617 -8.4069072 0
1.2382579 7.978059 0
-6.3592963 -2.0059526 0
-1.8567531 -1.649304 0
-1.0382504 7.6182178 0
0.88208766 1.5756597 0
-1.0918225 4.1881295 0
-0.28270763 12.871979 0
0.7400362 -8.0354089 0
0.53226252 12.227732 0
8.0604904 -6.6441989 0
-5.6665423 5.498002 0
-2.4174632 -12.464123 0
-5.1777746 -2.8009611 0
-3.8339778 0.24106043 0
-14.249741 -4.7903717 0
1.638444 -0.56247758 0
1.0599483 -6.6092077 0
-2.057726 -7.0004537 0
-4.4146666 2.5556693 0
15.224834 9.5334304 0
6.7295713 -17.265165 0
7.0242608 -1.1722767 0
15.363051 15.409581 0
0.78543122 3.2312814 0
4.8439829 8.2343085 0
5.4642905 -4.7662723 0
0.2540288 8.0450246 0
-17.918706 -1.4411286 0
-4.2253692 17.268407 0
-4.6364121 3.926408 0
1.735742 14.445712 0
-1.4916162 -6.6106827 0
-9.5627334 10.525065 0
7.6440504 2.0041387 0
-13.389773 -11.180622 0
1.8078207 2.3811686 0
-2.8567746 4.5578366 0
3.223961 -8.0936733 0
3.874972 -5.7754328 0
-1.1586604 6.4281821 0
-0.99761198 7.5515179 0
-4.1321432 2.6196912 0
-8.931504 -10.147656 0
0.042533696 2.3465894 0
11.98835 0.13771219 0
-1.0382739 -2.0957481 0
-11.103296 -8.2126722 0
-4.2273784 -12.461957 0
-13.820261 4.6978037 0
-10.3661 0.77317134 0
-0.075857211 1.0006654 0
-7.4787397 -0.59986929 0
0.28536605 0.26877161 0
-5.8291349 -10.214666 0
1.1327227 2.171546 0
-4.3011265 5.8511688 0
-5.747498 10.028753 0
-16.332173 6.7611034 0
-0.44929102 9.9976699 0
-5.7567563 -8.9728405 0
-3.508309 -2.0410526 0
-0.55754837 -4.9366506 0
0.47433283 0.33389647 0
0.19465632 5.8995965 0
-0.88254512 3.1778442 0
0.094001626 -7.7421575 0
5.150162 -5.0781321 0
-5.9386693 1.1261545 0
2.9004074 -0.087403846 0
-4.5998985 3.1527752 0
11.640201 9.8722051 0
6.7397063 -2.8319594 0
5.8785529 5.15413 0
6.3654076 0.23630995 0
0.4326025 -1.3861679 0
2.276789 -1.3347151 0
0.65974889 6.5768832 0
-6.6105736 0.10033939 0
9.0281132 3.4032442 0
-3.4962896 0.37035968 0
0.65897281 -5.8212343 0
-6.107002 -2.1728769 0
-4.1702595 1.2191657 0
-1.3115667 10.890091 0
5.373955 -11.853363 0
1.7908816 -8.1201607 0
-0.33710672 2.016073 0
1.9995625 -3.7255271 0
-6.4763021 2.224963 0
0.62433525 -13.043998 0
-9.0073489 0.50582741 0
10.599253 6.5167871 0
10.26154 -8.5753079 0
15.919779 -25.39364 0
-2.6030552 2.0176615 0
-3.410872 -1.4536077 0
-14.942445 14.031269 0
-2.573592 -2.5539825 0
2.1662207 0.090078113 0
2.4977734 2.0496401 0
-8.6290815 -9.2924574 0
-1.7135402 1.8302695 0
-3.0148601 4.0148141 0
-8.8270577 -0.050825676 0
-8.7706493 4.1290172 0
-3.6137293 -4.0220526 0
-5.7277932 2.6870815 0
-4.4614204 3.8500384 0
-2.2416559 9.6845923 0
-1.9500233 -6.6425639 0
1.4606705 4.4374942 0
-3.9567485 -8.087887 0
-3.5217886 4.1092809 0
4.0652239 -0.77405083 0
-5.0524145 0.44023257 0
-4.3680856 2.1926853 0
-3.7866436 -4.1843135 0
2.9657722 -5.1373074 0
4.8413534 4.7518885 0
-4.1731375 6.1714765 0
-1.6062016 -4.4086833 0
-3.0242437 11.21271 0
4.4252747 26.072444 0
0.031166634 6.235029 0
-5.1342123 6.4552161 0
4.8469954 3.2201259 0
-10.683453 3.6064772 0
-4.3320894 4.420286 0
4.5312119 3.8484017 0
-10.421496 8.4046237 0
1.8584393 -2.8388362 0
-5.8645289 0.50345173 0
-3.9487216 10.548279 0
-2.2596384 6.5419663 0
-8.6857461 2.341533 0
-10.102424 0.11421862 0
-10.006638 0.03782222 0
-9.3473524 0.80172418 0
2.7695233 1.5475663 0
-8.9442418 2.7491358 0
0.22440919 -12.5358 0
-8.9922228 -3.6184409 0
-5.9528463 1.3224245 0
-10.069562 0.66926489 0
-3.0106692 1.3231003 0
-1.7929623 6.4253755 0
-2.6318972 1.7107178 0
9.4050388 5.029878 0
-13.681448 1.8019859 0
-0.2477137 -2.2806711 0
9.3680114 -11.570669 0
4.0997897 10.330783 0
-7.4488858 -5.8905416 0
-15.801036 7.7785255 0
-9.8151774 -0.10939577 0
-12.027729 1.1586014 0
3.0777329 3.4995112 0
-12.80672 3.3605234 0
-9.7434742 1.1460952 0
-6.6927395 -8.5832581 0
-10.004482 0.0017060352 0
5.4143056 -11.138491 0
-10.14634 -0.34353623 0
-12.970284 -4.7070944 0
-6.2435069 -1.4894533 0
-6.553748 1.2496741 0
-5.8111923 5.4418973 0
7.7257266 -7.571706 0
-12.411027 6.235564 0
-11.783483 4.1331654 0
-2.8853083 10.190172 0
3.4074242 10.064891 0
5.4975001 5.0253225 0
-7.0173578 7.4554541 0
-7.5030935 -0.77706866 0
4.8734584 8.5509302 0
-6.0416416 7.3749113 0
-8.7618611 2.5878111 0
6.165039 13.28216 0
-4.7185848 2.5207938 0
6.5912662 14.219023 0
-9.9467694 0.049944422 0
-9.9820795 0.010128143 0
-10.01045 -0.0575719 0
-10.001343 0.016936366 0
-10.0147 0.038521197 0
-10.005649 -0.0075403423 0
-9.998999 0.065346165 0
6.588647 0.032646773 0
8.4551508 -11.915182 0
-10.030151 0.0074067546 0
2.2898174 4.5418832 0
-2.8450783 11.329016 0
4.0528713 1.6975083 0
-9.521959 -0.62890326 0
13.280427 4.7732903 0
-8.3144009 -5.3466534 0
-9.199037 2.4830169 0
13.921307 -9.6856278 0
3.0314446 8.4883189 0
-3.4353324 4.7611974 0
9.6429504 -2.1018713 0
-10.410898 -0.18150414 0
-13.188823 1.33946 0
-9.9211594 -0.16951837 0
-10.004123 0.0059488515 0
-4.609008 3.6963511 0
-10.241788 -1.2653182 0
-10.000241 -0.018784559 0
-10.014164 0.014922711 0
-10.015969 0.013943369 0
-10.253074 -13.550259 0
-9.75207 -0.0045952078 0
-10.020238 -0.018967276 0
-10.071116 0.12734498 0
-12.390176 -2.3646639 0
-9.8719604 -1.5031783 0
-10.087626 -0.86285831 0
-5.1330733 -16.539094 0
-1.1766517 -4.7965103 0
11.547332 -8.1667522 0
6.1823549 -0.078121503 0
2.2900026 -2.8118526 0
-9.961164 0.88637547 0
-2.2160441 -3.1123123 0
-9.9905978 -0.055974975 0
-6.6306458 -4.8873473 0
-0.76609725 0.24573074 0
-12.290912 3.9364224 0
-9.5305926 -0.59269781 0
-10.003085 -0.016731782 0
-10.032021 0.031680618 0
-3.3376198 -8.1380369 0
-10.00411 -0.031043557 0
9.3664052 -3.8409628 0
10.546726 1.4224364 0
-4.6366027 -21.115918 0
6.584848 -11.270824 0
1.0286723 -6.3577458 0
5.0049062 -5.2001617 0
0.62468025 -0.66767324 0
-1.8471631 -4.7626049 0
11.152059 9.193658 0
-7.4774529 -3.5277967 0
1.5558357 -0.1510481 0
-9.373011 2.5863933 0
-2.0170311 0.35609908 0
-12.392497 3.2102348 0
4.0383749 3.7305953 0
-1.3370708 5.39874 0
18.348936 8.5972261 0
9.3901444 -1.6098912 0
-6.1439876 14.92843 0
-1.4326402 5.3999703 0
-10.816318 10.987343 0
3.3208318 8.3933335 0
619808.48 -383949.33 0
-2.6282259 22.954801 0
-4.4983234 10.081718 0
-1.2979909 -13.925298 0
-1.638872 -0.2684134 0
3.0806437 3.3956824 0
0.6891875 -25.566792 0
-4.3295038 -1.1548122 0
-5.4094634 -13.434214 0
7.5174993 -2.2727711 0
4.0255812 -3.7909474 0
15.818745 -0.20518671 0
-22.216216 -10.787623 0
1.8758076 4.4103266 0
-5.617502 -3.1546752 0
4.3127995 -1.1792922 0
-4.7926548 -8.5223411 0
9.0011242 9.6385002 0
0.47714932 3.7063306 0
-3.3986648 1.5077935 0
1.2617834 1.3452764 0
-0.92031544 9.5288335 0
-7.529218 12.438878 0
-3.2049517 11.864142 0
-5.8938193 2.9110485 0
1.8047609 3.6363272 0
-7.0010393 1.5344797 0
-0.11996191 9.339617 0
8.2354317 -6.020852 0
-1.2604928 -7.8281824 0
2.2768489 -7.3717528 0
1.0334028 -11.163266 0
7.4795673 -2.747053 0
-0.63711933 5.8342032 0
8.071816 -9.3271147 0
6.13706 -13.35817 0
3.1031904 -1.9728131 0
-1.5202586 -2.055199 0
17.430013 -2.6851931 0
5.5778051 9.0359144 0
-0.012884845 3.2653156 0
-12.245812 0.8549706 0
11.664066 0.34320247 0
5.914866 7.3739122 0
9.2910608 -1.230227 0
2.9719371 9.5275012 0
11.043599 -8.362013 0
0.52288342 -2.8147087 0
5.9908014 21.043936 0
-2.2978476 11.528767 0
-0.50989646 9.8179549 0
-6.5898095 10.479706 0
-2.5784544 -0.72929846 0
-6.5485832 -6.7367898 0
-1.9603386 -10.561267 0
-5.936282 -7.9782937 0
2.5205514 3.943392 0
-5.7401175 4.4211976 0
-13.776842 -10.209423 0
14.794339 3.1158835 0
3.2596146 -14.403325 0
-2.9327841 -4.6739727 0
4.5346083 -7.2316414 0
3.7961247 4.7761197 0
-2.5983902 -2.4952133 0
-7.9892674 1.3627888 0
6.9891723 7.3379286 0
8.6328459 -2.4724781 0
-1.8190095 0.60126781 0
-18.740086 -15.310613 0
-8.7595192 -10.960958 0
13.868709 -3.3506326 0
2.8964399 16.421338 0
-0.80493477 -3.1595715 0
-2.0864091 3.0304935 0
7.4474346 12.662903 0
-1.5363817 -12.666043 0
7.0375606 8.2927614 0
8.7208899 -8.7456703 0
5.7222238 -11.129663 0
-8.2067641 7.7224075 0
12.144497 -1.2611857 0
7.8820021 -29.444921 0
1.1422302 -4.1781357 0
-4.416204 -6.3986982 0
-5.452283 -6.9112594 0
-13.709799 -3.9055379 0
9.2412477 -11.183307 0
2.6574183 -2.3751712 0
-10.780313 1.2109895 0
-2.2804297 6.1669484 0
-14.90102 8.6421024 0
-616227.85 387734.05 0
-4.6263079 7.766678 0
6.0545704 6.4229287 0
6.4937319 8.8276147 0
0.09608244 -0.075391662 0
8.9392257 10.742165 0
0.49192679 11.327878 0
1.3626318 23.700881 0
-0.22973996 16.782491 0
4.4646953 16.239818 0
5.5686767 3.5571789 0
5.5388083 -15.659267 0
1.1953512 -12.882519 0
-3.8734929 -12.885289 0