# vtk DataFile Version 4.0
hesp visualization file
ASCII
DATASET UNSTRUCTURED_GRID
POINTS 1250 double
27.480447 -2.7302186 4
28.178957 -1.6940158 4
31.424895 0.9009856 4
28.025461 6.1392413 4
29.04294 4.9233806 4
34.414554 5.8972616 4
33.805778 2.0732643 4
36.077639 11.741306 4
29.514078 11.268555 4
28.323516 9.165576 4
33.743757 10.878432 4
29.736559 12.617244 4
30.019076 12.773751 4
33.162124 12.351424 4
28.007392 19.263917 4
33.376721 16.069717 4
26.831574 22.076046 4
32.812616 22.343503 4
29.384344 20.990041 4
30.710231 27.463181 4
29.241437 24.278128 4
31.489911 25.252111 4
31.401201 22.713437 4
30.698657 38.155516 4
30.18767 34.207912 4
39.352109 -7.6759798 4
26.44393 1.0463378 4
27.265146 -4.4965841 4
29.528378 5.1544347 4
28.963689 5.1917362 4
29.142839 3.4600483 4
29.685897 1.6203205 4
25.642492 5.9371165 4
27.898305 6.7320882 4
28.164017 8.9706106 4
28.456287 10.207895 4
32.1504 11.518584 4
28.783524 17.619524 4
26.083247 14.16743 4
32.344987 13.247649 4
27.698453 22.02173 4
29.099965 15.783269 4
26.108228 20.319649 4
34.527679 17.838645 4
33.795011 21.680194 4
29.773262 28.821645 4
31.01373 20.89346 4
27.150965 30.175408 4
29.876761 36.785441 4
31.097773 31.248557 4
28.06231 -0.94325353 4
30.191814 -7.7818213 4
29.698733 0.091776099 4
32.853504 4.9562813 4
34.24466 -2.6665747 4
33.689869 3.9013786 4
29.314112 0.80595837 4
31.389615 8.3942715 4
32.681562 11.3276 4
33.342708 11.37871 4
29.787352 9.2820683 4
29.902897 10.383005 4
31.868074 11.899666 4
33.428743 10.446527 4
32.757383 12.404379 4
31.990584 12.90983 4
30.437125 15.661513 4
35.37309 20.015337 4
30.130613 17.131855 4
28.495057 25.737033 4
27.481007 19.347217 4
35.122263 21.378122 4
30.183211 19.693888 4
33.975401 29.804213 4
30.975022 26.354155 4
36.687281 -12.156148 4
31.164251 -1.9199571 4
31.477684 6.5873729 4
33.099211 -2.3592313 4
27.026473 6.8359806 4
30.049567 9.8113077 4
27.017575 9.4825829 4
32.250719 12.220848 4
28.750407 11.245681 4
33.061342 11.17346 4
29.497867 14.739869 4
31.116223 9.7200787 4
29.562519 14.363493 4
32.200632 17.457627 4
32.657681 13.683488 4
32.507757 15.424886 4
29.265315 17.537412 4
33.016487 14.54355 4
31.184256 18.765665 4
30.173584 19.369524 4
35.208342 17.702003 4
30.48458 22.437646 4
30.375021 25.116972 4
30.107774 26.130483 4
32.448364 40.854228 4
34.391868 -7.4004477 4
29.313997 -6.9081248 4
36.420551 4.2412385 4
33.03101 8.0788241 4
27.026966 -1.753056 4
30.218496 8.2823739 4
32.740563 5.7469258 4
30.019141 3.8889879 4
33.682773 7.1790127 4
33.259821 6.9879641 4
33.51186 7.8698299 4
31.901447 8.2702486 4
34.114154 12.795848 4
32.799119 9.9431707 4
33.679819 13.647539 4
37.075705 17.811764 4
33.31136 17.270443 4
29.7634 19.279179 4
30.841508 18.569215 4
36.006987 18.353596 4
33.388452 26.584399 4
32.740972 23.9428 4
36.358716 23.312048 4
32.867985 26.8247 4
30.448395 27.873416 4
28.934542 -6.2189461 4
27.111981 -2.8477624 4
34.924862 7.702861 4
36.728088 5.6186412 4
33.442434 2.8917589 4
30.157205 10.90514 4
32.773779 8.9852464 4
35.901376 9.6853916 4
35.415611 10.852634 4
35.54762 16.035599 4
35.0096 16.320042 4
37.609633 15.378158 4
32.089531 19.020921 4
37.667018 17.780868 4
30.259989 14.413615 4
32.380534 23.658667 4
32.693233 19.956941 4
33.364503 22.555419 4
34.517503 24.909289 4
33.68092 26.621241 4
32.108295 29.83921 4
33.303187 21.155215 4
32.233541 28.592795 4
35.077261 33.69285 4
25.029515 29.137778 4
31.968554 4.9185604 4
28.013477 -9.2083398 4
35.107797 4.3781734 4
32.057252 0.43492285 4
31.250907 2.0135412 4
29.020903 6.0174295 4
31.950554 6.4576803 4
31.984663 9.6204504 4
31.487882 11.975451 4
29.112004 10.259297 4
33.623507 13.213929 4
29.119046 13.534692 4
30.768236 12.650571 4
34.659976 16.448829 4
29.966431 14.80158 4
30.928973 16.671453 4
30.128504 18.136556 4
31.574723 21.037797 4
32.780568 24.938438 4
31.535949 21.689661 4
30.599916 24.429402 4
34.235134 25.672787 4
33.287435 27.027385 4
35.147178 24.083944 4
27.62394 32.35567 4
41.907516 -4.6577203 4
30.09635 1.5923634 4
32.799674 -2.1036953 4
34.927641 5.0972423 4
33.215756 10.686272 4
29.526591 -1.5525498 4
33.101964 7.2738731 4
27.659096 6.9552591 4
37.144492 7.1612174 4
37.153839 9.5332012 4
32.295979 12.696516 4
31.234249 12.660628 4
32.91397 17.847959 4
32.901557 13.625618 4
37.575983 14.12673 4
33.646639 20.863393 4
36.137891 14.907173 4
31.449991 23.087033 4
34.235136 21.101798 4
29.882881 22.68047 4
32.093134 21.123729 4
29.53644 29.090934 4
35.064298 28.621984 4
31.946337 29.246821 4
40.311865 35.450741 4
33.136319 3.0833575 4
33.089994 2.7411258 4
33.941878 1.3286669 4
31.32339 -2.6884668 4
31.698637 3.8005058 4
32.497048 3.3489691 4
35.099703 6.2938417 4
35.754304 10.380229 4
34.556168 11.564085 4
36.23993 12.096944 4
35.29352 16.800072 4
33.879689 16.801206 4
30.939038 15.030012 4
32.211961 13.664811 4
34.49194 18.643892 4
37.759525 18.907555 4
30.857479 14.668652 4
31.438712 13.542495 4
33.505797 15.332559 4
36.079161 19.877368 4
34.17414 25.397224 4
35.575822 27.406764 4
35.356394 23.272168 4
35.337278 29.406814 4
32.090358 27.488586 4
32.568751 -0.9768051 4
28.014909 0.56302009 4
34.86595 0.93464023 4
33.744579 9.7037111 4
32.181569 5.9397714 4
34.858199 7.9602516 4
35.015452 6.980276 4
36.349063 9.2722754 4
34.992635 12.326552 4
36.458823 14.000078 4
34.877342 13.146093 4
32.295268 17.25031 4
33.775473 17.224225 4
36.108743 14.131549 4
32.502082 17.558217 4
36.453765 19.740276 4
36.288586 20.472795 4
35.491472 25.213984 4
33.956214 21.519933 4
37.05657 23.535197 4
32.895486 25.621587 4
33.918457 25.848885 4
32.849945 27.773314 4
32.579846 28.863931 4
28.055496 29.84185 4
29.514497 -3.9404091 4
32.666734 1.1228722 4
32.554979 2.0353107 4
32.710796 -0.11175563 4
38.780197 4.9163152 4
34.259692 3.6460287 4
36.876637 6.6972146 4
35.281405 5.9525185 4
35.278716 9.8539761 4
35.609257 8.7829907 4
35.345 14.252287 4
36.341359 14.33389 4
38.611309 11.388596 4
38.510662 12.070972 4
33.040122 16.416236 4
31.723943 18.312498 4
34.908407 13.975443 4
33.88388 20.721933 4
34.307767 20.511262 4
35.703234 20.760955 4
38.0287 26.431501 4
34.209048 21.874767 4
33.997191 23.417192 4
32.874848 28.610619 4
29.436683 32.960132 4
37.82849 -7.4332025 4
30.928213 0.27747994 4
32.224294 3.7534276 4
36.863902 5.3867448 4
33.733387 6.4077551 4
39.206889 6.045035 4
34.491964 7.3201614 4
32.585112 9.3745966 4
34.861415 9.4025323 4
32.964923 8.2951188 4
33.564866 14.584237 4
34.352987 14.125042 4
35.638401 16.770183 4
34.444511 13.558587 4
37.38856 18.959548 4
36.438933 21.48972 4
34.259162 20.109071 4
36.69177 22.463838 4
35.580982 22.70832 4
32.741459 19.105256 4
33.254635 22.79179 4
35.694266 23.324139 4
30.448782 28.666382 4
32.795319 31.153328 4
39.097277 34.362531 4
33.968205 -0.77021695 4
33.859579 2.3175563 4
35.257826 1.2297723 4
31.6521 4.6994711 4
36.79869 4.6281897 4
35.539288 5.292236 4
36.250161 8.3299342 4
39.341458 10.127854 4
37.195476 10.048978 4
35.502337 11.116352 4
35.495522 12.226261 4
36.731784 13.187616 4
35.648079 15.298116 4
35.540928 15.613685 4
35.334831 16.274153 4
44.897396 18.554264 4
36.698178 21.806352 4
36.224979 22.494594 4
34.15624 22.570323 4
36.872771 26.41298 4
35.912923 27.991485 4
36.071565 27.300246 4
38.332826 26.923611 4
35.573323 32.175338 4
32.059643 30.912087 4
34.581774 -1.3699273 4
33.399683 1.6135673 4
37.191576 3.5797517 4
35.500499 3.3874063 4
34.14133 4.8652702 4
39.398339 7.6391505 4
34.142385 8.3896685 4
37.592207 9.6496173 4
37.001874 7.915261 4
36.114241 8.8217585 4
36.537726 10.486345 4
33.734758 12.750134 4
34.366167 14.628316 4
37.036279 13.439714 4
37.557689 18.604532 4
36.1427 15.945832 4
38.842841 17.029351 4
37.899706 15.754284 4
36.239411 19.482438 4
36.940851 21.027754 4
37.24682 21.851472 4
36.010746 23.516494 4
35.8873 23.918447 4
38.269976 29.466825 4
35.198212 29.939184 4
35.589589 2.566206 4
35.41995 -0.71996601 4
36.886514 4.1907184 4
35.845186 1.9778191 4
34.260295 5.0934198 4
37.442639 6.8837562 4
36.132818 6.255464 4
34.315225 8.5461611 4
35.632597 11.755053 4
36.030514 11.018009 4
34.749156 12.63775 4
34.962451 11.564938 4
36.962535 14.640934 4
35.371136 15.36662 4
34.927184 18.112374 4
34.651697 19.164659 4
35.965117 20.431489 4
35.868521 21.272176 4
35.626059 21.962356 4
36.881374 25.095639 4
36.364873 24.078982 4
34.516761 25.765 4
34.799278 22.035791 4
35.911917 30.022323 4
37.580625 29.16317 4
35.964711 1.1092669 4
36.716741 1.2541258 4
37.049874 2.2535595 4
35.796702 3.394612 4
36.939149 4.8477755 4
37.50492 7.991381 4
37.733466 11.604567 4
37.435718 11.636312 4
36.876104 12.864404 4
38.08111 13.328202 4
36.834119 15.115085 4
37.155566 15.953908 4
37.083404 17.507676 4
38.642845 17.805934 4
37.901759 18.4532 4
39.213708 17.546513 4
36.493747 16.967837 4
36.713265 19.352855 4
38.307659 18.539201 4
38.275488 19.645842 4
38.30653 20.793283 4
38.620988 27.656765 4
39.33308 28.083204 4
35.075579 26.86865 4
35.097554 28.910924 4
36.311194 1.1460302 4
37.769431 1.6607336 4
37.080113 3.1951748 4
37.19663 4.7352936 4
37.427546 5.7416347 4
37.682993 7.4668874 4
39.999681 10.95879 4
36.712822 8.767105 4
36.162071 10.064214 4
36.622696 11.839167 4
36.229189 12.453015 4
36.567616 12.776513 4
36.309615 14.650445 4
36.550985 16.445513 4
39.473661 15.991175 4
36.095408 16.74559 4
36.553171 18.881258 4
37.087889 20.047523 4
37.314096 21.383486 4
37.222032 22.777424 4
36.923763 22.643352 4
38.236173 24.810428 4
37.656762 24.838932 4
35.830558 29.203397 4
35.606499 28.762492 4
37.304283 1.1302678 4
37.93065 1.9165193 4
37.332287 3.3713004 4
37.341392 4.3760462 4
37.705078 5.111382 4
37.840287 6.4796201 4
38.603198 8.253056 4
38.647587 9.9223595 4
38.666999 11.144934 4
38.676132 12.28392 4
38.664545 13.399114 4
38.664871 14.521668 4
38.669221 15.661797 4
38.674642 16.643808 4
38.699582 17.393791 4
40.136122 20.285197 4
38.47575 19.93898 4
38.036608 20.302935 4
37.634993 21.375243 4
38.21437 22.030112 4
37.40148 23.559282 4
39.671747 22.686625 4
37.930397 25.538531 4
38.348882 26.293954 4
38.444922 29.207276 4
38.426786 1.1298666 4
38.426654 2.244882 4
38.426775 3.3673883 4
[...]
POINT_DATA 1250
SCALARS m double
LOOKUP_TABLE default
1
1
1
1
1
1
1
1
1
1
1
1
1
1
1
1
1
1
1
1
1
1
1
1
1
1
1
1
1
1
1
1
1
1
1
1
1
1
1
1
1
1
1
1
1
1
1
1
1
1
1
1
1
1
1
1
1
1
1
1
1
1
1
1
1
1
1
1
1
1
1
1
1
1
1
1
1
1
1
1
1
1
1
1
1
1
1
1
1
1
1
1
1
1
1
1
1
1
1
1
1
1
1
1
1
1
1
1
1
1
1
1
1
1
1
1
1
1
1
1
1
1
1
1
1
1
1
1
1
1
1
1
1
1
1
1
1
1
1
1
1
1
1
1
1
1
1
1
1
1
1
1
1
1
1
1
1
1
1
1
1
1
1
1
1
1
1
1
1
1
1
1
1
1
1
1
1
1
1
1
1
1
1
1
1
1
1
1
1
1
1
1
1
1
1
1
1
1
1
1
1
1
1
1
1
1
1
1
1
1
1
1
1
1
1
1
1
1
1
1
1
1
1
1
1
1
1
1
1
1
1
1
1
1
1
1
1
1
1
1
1
1
1
1
1
1
1
1
1
1
1
1
1
1
1
1
1
1
1
1
1
1
1
1
1
1
1
1
1
1
1
1
1
1
1
1
1
1
1
1
1
1
1
1
1
1
1
1
1
1
1
1
1
1
1
1
1
1
1
1
1
1
1
1
1
1
1
1
1
1
1
1
1
1
1
1
1
1
1
1
1
1
1
1
1
1
1
1
1
1
1
1
1
1
1
1
1
1
1
1
1
1
1
1
1
1
1
1
1
1
1
1
1
1
1
1
1
1
1
1
1
1
1
1
1
1
1
1
1
1
1
1
1
1
1
1
1
1
1
1
1
1
1
1
1
1
1
1
1
1
1
1
1
1
1
1
1
1
1
1
1
1
1
1
1
1
1
1
1
1
1
1
1
1
1
1
1
1
1
1
1
1
1
1
1
1
1
1
1
1
1
1
1
1
1
1
1
1
1
1
1
1
1
1
1
1
1
1
1
1
1
1
1
1
1
1
1
1
1
1
1
1
1
1
1
1
1
1
1
1
1
1
1
1
1
1
1
1
1
1
1
1
1
1
1
1
1
1
1
1
1
1
1
1
1
1
1
1
1
1
1
1
1
1
1
1
1
1
1
1
1
1
1
1
1
1
1
1
1
1
1
1
1
1
1
1
1
1
1
1
1
1
1
1
1
1
1
1
1
1
1
1
1
1
1
1
1
1
1
1
1
1
1
1
1
1
1
1
1
1
1
1
1
1
1
1
1
1
1
1
1
1
1
1
1
1
1
1
1
1
1
1
1
1
1
1
1
1
1
1
1
1
1
1
1
1
1
1
1
1
1
1
1
1
1
1
1
1
1
1
1
1
1
1
1
1
1
1
1
1
1
1
1
1
1
1
1
1
1
1
1
1
1
1
1
1
1
1
1
1
1
1
1
1
1
1
1
1
1
1
1
1
1
1
1
1
1
1
1
1
1
1
1
1
1
1
1
1
1
1
1
1
1
1
1
1
1
1
1
1
1
1
1
1
1
1
1
1
1
1
1
1
1
1
1
1
1
1
1
1
1
1
1
1
1
1
1
1
1
1
1
1
1
1
1
1
1
1
1
1
1
1
1
1
1
1
1
1
1
1
1
1
1
1
1
1
1
1
1
1
1
1
1
1
1
1
1
1
1
1
1
1
1
1
1
1
1
1
1
1
1
1
1
1
1
1
1
1
1
1
1
1
1
1
1
1
1
1
1
1
1
1
1
1
1
1
1
1
1
1
1
1
1
1
1
1
1
1
1
1
1
1
1
1
1
1
1
1
1
1
1
1
1
1
1
1
1
1
1
1
1
1
1
1
1
1
1
1
1
1
1
1
1
1
1
1
1
1
1
1
1
1
1
1
1
1
1
1
1
1
1
1
1
1
1
1
1
1
1
1
1
1
1
1
1
1
1
1
1
1
1
1
1
1
1
1
1
1
1
1
1
1
1
1
1
1
1
1
1
1
1
1
1
1
1
1
1
1
1
1
1
1
1
1
1
1
1
1
1
1
1
1
1
1
1
1
1
1
1
1
1
1
1
1
1
1
1
1
1
1
1
1
1
1
1
1
1
1
1
1
1
1
1
1
1
1
1
1
1
1
1
1
1
1
1
1
1
1
1
1
1
1
1
1
1
1
1
1
1
1
1
1
1
1
1
1
1
1
1
1
1
1
1
1
1
1
1
1
1
1
1
1
1
1
1
1
1
1
1
1
1
1
1
1
1
1
1
1
1
1
1
1
1
1
1
1
1
1
1
1
1
1
1
1
1
1
1
1
1
1
1
1
1
1
1
1
1
1
1
1
1
1
1
1
1
1
1
1
1
1
1
1
1
1
1
1
1
1
1
1
1
1
1
1
1
1
1
1
1
1
1
1
1
1
1
1
1
1
1
1
1
1
1
1
1
1
1
1
1
1
1
1
1
1
1
1
1
1
1
1
1
1
1
1
1
1
1
1
1
1
1
1
1
1
1
1
1
1
1
1
1
1
1
1
1
1
1
1
1
1
1
1
1
1
1
1
1
1
1
1
1
1
1
1
1
1
1
1
1
1
1
1
1
1
1
1
1
1
1
1
1
1
1
1
1
1
1
1
1
1
1
1
1
1
1
1
1
1
1
1
1
1
1
1
1
1
1
1
1
1
1
1
1
1
1
1
1
1
1
1
1
1
1
1
1
1
1
1
1
1
1
1
1
1
1
1
1
1
1
1
1
1
1
1
1
1
1
1
1
1
1
1
1
1
1
1
1
1
1
1
1
1
1
1
1
1
1
1
1
1
VECTORS v double
-2.0008249 -6.9550765 0
-4.5127462 -4.9923912 0
-0.2692622 -16.06432 0
-0.85024192 -13.493119 0
6.5988928 8.06589 0
-12.237566 -6.6495467 0
-4.8715954 -0.18195481 0
4.8704082 -2.2355794 0
-8.9738615 18.328193 0
5.2892853 5.1998685 0
4.3225477 3.7386133 0
15.723251 -7.8013297 0
9.7313376 -14.882211 0
-11.21265 3.5224732 0
2.3517524 3.3497437 0
6.4745598 -7.5628563 0
-12.041896 -8.472521 0
-8.7098223 -11.684727 0
6.8762448 -12.029625 0
0.25697425 12.39402 0
1.6527857 -2.7359295 0
-11.533551 2.065117 0
0.0076086238 -13.741439 0
0.20847396 22.962131 0
1.6623678 10.970377 0
8.8399962 -9.0826426 0
-11.085587 -8.2569316 0
-4.8732037 -9.0165612 0
-2.7943983 -9.3431955 0
-3.2541496 3.5185009 0
-3.3141936 -1.8413138 0
6.0639627 0.085225011 0
-6.9622585 -2.3371455 0
0.6579647 -14.28827 0
6.7878348 3.5977285 0
-1.4506739 3.572684 0
13.653281 1.344164 0
4.742787 8.1926647 0
9.2678633 -13.225027 0
17.965657 1.4230929 0
-4.2268998 -5.8562079 0
-5.484835 11.236195 0
-3.4947579 1.3475817 0
4.2434718 5.4364039 0
-2.3897587 7.7265137 0
-7.002669 1.2342445 0
-3.8387499 -4.2800128 0
9.533484 6.9669557 0
1.469132 13.664151 0
-7.0928038 8.5246568 0
10.481141 -5.4075247 0
3.1087581 -15.901027 0
-4.7848213 -10.830106 0
6.5005974 -6.3087834 0
10.756907 -12.55385 0
3.4170402 6.5972673 0
3.7287722 -12.87122 0
16.215353 -0.14696781 0
8.9377208 8.2959748 0
-4.5679656 -0.88874715 0
-1.2737527 -0.16994763 0
-7.7710645 7.3928133 0
-1.0206518 9.2200334 0
-3.4361785 -17.112742 0
5.1546768 -0.49269437 0
-8.0727602 -9.1997164 0
8.9181777 -12.872554 0
10.088523 11.020539 0
-8.1137674 7.2548099 0
-5.6149965 3.4445488 0
-3.4394856 -0.14151319 0
11.755646 -2.1769493 0
2.5369685 -4.0952259 0
6.3486217 6.0523344 0
-2.0597284 -0.89191879 0
3.9466542 -13.879275 0
-3.3933396 -4.9982604 0
2.5728697 14.267571 0
5.1446246 -14.869983 0
-3.2844927 1.8681347 0
-3.5418889 2.7340644 0
-8.4867949 -1.3980827 0
5.7645558 2.6412011 0
2.1853306 0.40087592 0
-10.695726 -8.8357076 0
20.198945 3.2268142 0
-3.6727659 5.675014 0
1.9084317 10.00981 0
3.4688774 1.149735 0
4.2711759 -11.114779 0
5.0873447 12.687587 0
2.49351 -4.893688 0
1.9569889 -7.7699622 0
4.878362 -0.77820402 0
-10.285173 -1.6349822 0
12.765915 2.7532643 0
-6.1398795 2.1705128 0
6.98256 4.9909882 0
12.507108 7.8797468 0
0.47115582 14.494986 0
3.3724326 -12.746334 0
-5.5568334 -14.758362 0
-1.9276615 0.40276197 0
-0.34345462 -10.24575 0
-7.7714947 -8.633295 0
-15.238337 -3.4278797 0
-9.4957285 0.58738098 0
-7.0034022 -8.0123064 0
7.9463434 5.5027267 0
9.5884215 -11.877252 0
-8.4166733 -2.213571 0
9.8561911 -16.025409 0
-4.404463 6.0522873 0
-10.498225 0.44556609 0
3.3410552 -0.79393354 0
0.8451749 0.80634718 0
-7.8326734 1.7655138 0
-11.451501 -9.6471473 0
3.919379 -2.064999 0
-9.2099428 -11.411899 0
-7.423384 13.449099 0
2.5657874 15.229996 0
-5.6277366 8.95958 0
-3.0955472 9.733798 0
-8.0180169 0.6152664 0
-2.3621076 -9.0005971 0
0.15624227 -22.498795 0
-0.26831247 13.040044 0
-0.87333798 -1.6626716 0
-6.2991227 -9.6287785 0
5.6497831 5.5287818 0
-7.8292909 -2.6591465 0
1.012585 -9.4679663 0
7.8189937 -12.740251 0
10.729929 3.7976887 0
0.81880724 -16.709576 0
1.2539003 -8.4783913 0
-5.8326885 9.7933405 0
18.002659 -1.1513845 0
-3.1696696 -15.74389 0
5.4904378 4.1376194 0
-8.3372642 2.5280791 0
1.0721194 6.5582538 0
2.1039236 8.5768123 0
14.714532 11.312648 0
-1.1428638 0.93964294 0
12.021539 -9.5095885 0
-7.7625353 1.9826127 0
2.7835754 9.3004243 0
-9.1791074 1.2251314 0
-2.9967879 -2.0553136 0
-7.1221573 -15.01762 0
-17.147246 -4.7200357 0
-4.0194978 -9.4533959 0
-0.59773921 -8.1551486 0
-0.85528315 5.569 0
-2.0422517 -8.7893152 0
3.3862856 -1.7995532 0
-6.404132 -12.730523 0
-2.9941891 11.708665 0
17.275361 3.1815402 0
6.1296662 -0.83044019 0
0.069451568 -6.8131175 0
-0.13233757 1.2049073 0
5.5501384 -5.0191588 0
-13.411915 -2.3270688 0
-0.49731817 8.9354324 0
-6.9329979 -0.72125466 0
6.3831723 4.5533846 0
3.1674935 1.8112765 0
-8.7760799 4.2478221 0
-0.32144449 2.9685983 0
0.96113269 -3.7158692 0
0.36875321 1.4659009 0
-9.1682388 7.0703318 0
7.9152496 -6.5258364 0
-12.305664 -4.9704849 0
-0.0077095099 -13.914453 0
-8.8436514 4.3013869 0
7.5319537 -7.7133461 0
-4.6973385 -16.490748 0
10.717062 -3.396052 0
-11.214145 2.637464 0
-2.5028192 -14.027368 0
0.27601546 3.3229534 0
1.5282823 -5.2554378 0
-3.2680093 11.705026 0
0.80354486 16.357521 0
0.7017519 -1.0384692 0
0.78506426 4.7384686 0
1.4289383 7.567895 0
-14.541321 -1.6549984 0
-4.3371119 0.63076086 0
6.1275989 3.3053616 0
-0.48554562 -2.6104097 0
0.15881044 -2.3374686 0
6.8113531 20.58553 0
-8.1576097 2.715963 0
5.4695676 9.2379825 0
6.2746 8.8214943 0
-3.6446204 7.2931978 0
0.92408103 3.4206705 0
-0.53407746 0.39597683 0
6.0224473 -18.674013 0
-11.580621 -2.7809801 0
-7.9529151 1.400269 0
2.505729 -0.054651435 0
2.4360399 2.142478 0
12.051572 -8.5388083 0
4.197921 -5.0086704 0
18.293542 1.2617638 0
-7.1135306 9.802442 0
-1.3784096 3.0868511 0
-2.883357 2.6315152 0
-10.404634 13.856575 0
4.6862486 4.2084335 0
2.218508 -9.2807816 0
-6.3332388 -2.4292861 0
14.210077 -4.9322408 0
1.736611 -9.1036444 0
-0.38640552 4.7264966 0
3.4398239 4.4642127 0
0.17699222 -4.6007014 0
-3.6712398 14.263426 0
-5.4519137 -3.1894447 0
2.7978933 -1.0681227 0
-4.6802995 -14.709635 0
3.1641996 -6.1340376 0
-6.4046189 8.3823455 0
-2.6954485 -3.3931019 0
2.684475 4.3277964 0
0.17913093 1.353872 0
10.204214 -11.391187 0
2.4776768 7.8894056 0
-5.6401226 -1.9550111 0
-0.51151803 7.9441118 0
-10.310388 -9.3388266 0
4.0184427 2.7711181 0
6.5885186 -10.586786 0
2.2569182 15.150367 0
-2.9897637 1.3669367 0
9.2949454 6.3780926 0
-1.082589 3.0685319 0
-0.38375852 -1.8769119 0
-10.757137 -5.0581479 0
-3.2354896 -1.4136863 0
-12.39382 0.97925186 0
-7.0184947 4.7514894 0
5.9321099 7.7073186 0
-10.632592 6.0360439 0
-9.3670074 -11.17076 0
0.76023515 -4.5847727 0
-1.0007473 -5.3549075 0
-14.489447 -10.159533 0
4.9628001 0.39847416 0
-0.17500309 -2.0605939 0
-10.184479 -2.4214045 0
11.18928 -8.8547753 0
9.0104647 -2.179728 0
-7.3879942 1.8110406 0
-7.8351449 9.6641396 0
2.5143086 2.2203192 0
4.0310905 -0.62640287 0
1.3887105 -8.2878598 0
-5.823101 2.2895787 0
-9.6877077 9.0852015 0
-2.1381658 -14.769346 0
-8.9229192 -4.1838408 0
2.2469558 4.4419286 0
0.88253211 6.5939974 0
1.0618294 -2.230726 0
-2.529637 -12.244806 0
3.7143632 -2.1698845 0
-8.8413264 3.1826627 0
-10.089459 9.2024421 0
0.83130937 -12.772027 0
-7.7025764 -5.6421706 0
-7.3034561 4.4439262 0
-1.5181363 -9.8561983 0
6.5994069 3.1986616 0
7.412912 1.6397468 0
0.87403619 -5.7079325 0
9.953223 10.030901 0
0.14564124 -3.6981426 0
-4.1905869 -2.1385026 0
-0.9994412 -2.4086869 0
-2.7886041 5.5582519 0
-15.313049 0.55271911 0
-8.2485697 -3.0056921 0
7.6029836 6.2925857 0
-2.5780366 -4.5499538 0
-8.5805516 0.064621923 0
-12.117782 -4.4916838 0
-6.7719705 4.3394437 0
-0.09653808 -9.4682767 0
6.6687734 11.422097 0
-7.7731182 -14.031472 0
0.68844471 6.3617879 0
-12.562027 8.7662516 0
3.3786559 9.8879972 0
-0.84070589 -7.6406549 0
-11.512362 1.6531765 0
-2.9964154 -0.8812391 0
-7.1959222 1.3511445 0
-4.5921427 3.2824954 0
8.5610119 -18.538586 0
4.4640153 -6.3568585 0
-10.086677 0.27512818 0
0.49801921 -4.1156421 0
-5.8498389 1.5572889 0
-8.4601375 -2.958043 0
-1.9229974 -9.522608 0
-6.8684082 5.5931611 0
-5.0354019 1.1453264 0
-12.745076 -2.8674643 0
11.99647 -7.2470873 0
-4.0344639 7.4098942 0
-6.5293901 6.1618945 0
-3.6232391 -2.2993577 0
-0.55791996 12.408735 0
-0.60685129 5.213661 0
1.6025461 -2.9271119 0
-2.5828832 5.7541468 0
-4.5675065 9.5568722 0
-3.9355473 16.660189 0
0.27579722 -14.606888 0
-2.956478 -7.1583774 0
0.61301929 -4.0801001 0
-6.3151036 7.3472217 0
5.6868922 -15.2134 0
5.6149494 3.1172163 0
-4.647666 1.8967059 0
-2.0852837 -1.9366399 0
-1.2321567 -8.0829564 0
-9.7841428 -3.9438337 0
10.821048 5.1451362 0
-8.2482858 -3.6547121 0
-7.2460547 -0.90597125 0
6.7313242 3.9276198 0
6.1845938 6.8681315 0
-5.8449676 -6.3171443 0
14.338699 -10.15383 0
8.751267 2.9489866 0
-13.093777 -2.5404517 0
-7.4422843 -5.3924227 0
-0.7999188 -0.66938505 0
-1.4976678 2.5639683 0
-3.7365699 4.1546747 0
0.91791099 11.92413 0
-1.4906578 6.9609981 0
5.219534 13.222443 0
-2.9133111 -22.812883 0
5.6402486 1.560602 0
-10.989229 -2.6392456 0
-2.08961 -6.7668676 0
1.3849942 1.995176 0
-4.5810273 -6.6618055 0
-6.3542277 0.89591328 0
2.103937 8.5107697 0
-9.5926121 -0.92666318 0
-2.0577026 5.993874 0
-4.9470258 -8.0807913 0
6.841213 8.7216316 0
-5.8291121 -5.1505877 0
1.2519101 3.3613149 0
-5.4335376 -1.8966049 0
0.36226561 -1.3828893 0
2.487237 -1.9519059 0
-3.2508795 7.1909049 0
0.79155676 2.4357681 0
-10.373981 1.765534 0
-14.887151 8.5337101 0
9.6100611 -11.387517 0
-3.9207356 9.2235446 0
0.12871557 3.0587445 0
-9.8873511 -0.94111113 0
1.9990433 -7.3516059 0
-10.769977 -1.4991457 0
-3.3324805 -6.4442962 0
-1.4617949 -1.1293784 0
3.0788313 9.464327 0
-1.8726009 15.959619 0
-0.43196915 3.9852189 0
-5.7538325 5.3791614 0
8.8525397 -6.6583063 0
-10.969762 5.9182588 0
2.5497571 -0.99726608 0
-8.9364249 7.1746244 0
-0.9690093 0.56746278 0
-5.5635383 -0.90342163 0
5.7845679 -5.6878923 0
-9.6248797 -3.6215824 0
-2.6781689 5.2218011 0
-0.46925763 -9.6799445 0
-3.488031 -11.381148 0
-0.32213729 -9.5297627 0
1.7595617 9.6536173 0
-10.706511 4.5993476 0
-9.7197498 -0.69587588 0
-13.38064 10.152124 0
2.5968866 1.1408719 0
0.51011907 -5.9532502 0
-6.1883124 -13.880291 0
-11.336705 -0.23829349 0
-4.972245 0.27461061 0
-1.1875199 0.75177285 0
1.668646 -0.59182113 0
-2.2348602 -2.5337153 0
-10.168142 -1.0057696 0
-10.781829 6.8767583 0
-5.6024138 12.590479 0
-13.122559 -9.5856332 0
-0.98358946 -14.675547 0
-10.741622 13.294405 0
-8.8402465 2.0320891 0
10.636507 -3.3801462 0
-2.8806814 -3.6212116 0
-9.8112524 -1.7884089 0
-0.39277755 4.2805143 0
-3.4123167 6.887471 0
0.63874369 3.2310442 0
-9.8192253 0.38233688 0
-2.3362882 4.230517 0
-16.424339 8.6726115 0
-5.4991124 3.0364623 0
-10.001542 0.025750457 0
0.28823187 -3.1105119 0
-4.7758735 -1.1317169 0
-7.6133365 -7.5422447 0
1.3308631 3.9061988 0
1.7916689 -5.7273377 0
1.0615404 6.319343 0
-10.163037 1.9077762 0
-9.0106466 -0.81907361 0
-6.7867488 5.2260558 0
-10.02131 2.4314306 0
-10.016177 2.4320913 0
-9.9902884 2.5364729 0
-9.8425984 1.9967124 0
-10.157985 -0.75517739 0
-1.6648026 9.7376958 0
-5.6780173 1.0371703 0
0.49043052 1.3821427 0
-1.3686231 1.2203566 0
3.0985411 -18.089106 0
-2.524748 -0.91705927 0
-8.1386853 0.0682335 0
-6.1813555 2.5707078 0
-9.461527 -3.1012358 0
-2.2182074 4.6234254 0
-10.000778 0.012312942 0
-10.008557 -0.0041419857 0
-10.000211 4.7696365e-05 0
-10.011475 0.17219802 0
-10.023683 0.2240749 0
-10.005724 0.0033359629 0
-7.954796 -3.6083912 0
-5.2556806 1.8363073 0
3.0732101 -7.4582026 0
6.7830054 -0.13499658 0
6.8211735 -0.16504493 0
6.8183701 -0.13962153 0
6.8193233 -0.14052484 0
6.8186337 0.069040748 0
6.70683 -0.59326013 0
3.9481247 -5.1809993 0
-10.027178 -0.11596259 0
-11.902408 7.4592296 0
-10.073517 -0.073394154 0
-8.6764276 -1.3472404 0
0.42019281 11.821627 0
0.34653546 -5.906972 0
-10.030302 0.058880699 0
-1.0504803 3.7471476 0
-9.9179898 -0.22998064 0
-9.9999338 0.01155076 0
-10.000006 -8.3717794e-05 0
-9.9999991 1.0306634e-05 0
-10.000424 0.00021909005 0
-10.006463 0.0056756294 0
-9.9318369 0.080326607 0
-6.5859578 -9.1010967 0
-10.004726 -0.0075784615 0
-3.3848704 12.168716 0
-9.6152766 11.428004 0
-10.000767 -0.20647395 0
-10.000701 -0.20607629 0
-10.000292 -0.20573584 0
6.7520489 -8.9109604 0
-9.9346313 2.1816152 0
-7.3448439 8.1457145 0
-9.993761 0.045679783 0
-9.8054742 -0.17344247 0
0.59174273 2.8103751 0
-9.6979247 -9.4278667 0
3.1217494 6.0761146 0
-10.000126 0.00063791262 0
-10.00026 0.00046818684 0
-9.4992626 -1.199699 0
6.8724488 2.4796562 0
-9.9998769 0.011546244 0
-9.9999836 -7.7645173e-05 0
-9.9999838 6.3614609e-06 0
-9.9999878 8.974992e-06 0
-10.000009 2.6361696e-05 0
-10.001278 0.00059318048 0
-10.002118 0.00041020614 0
-9.9975984 0.0058873358 0
-2.770639 -11.040357 0
-9.9172682 -0.05017651 0
-10.001624 0.083653299 0
-10.001259 0.062507213 0
-9.9692221 0.1357248 0
-10.015481 -0.1202779 0
-9.9456271 0.26653172 0
-10.00836 -0.0089197287 0
-10.003201 -0.040805582 0
-10.012806 -0.00014612826 0
-10.003192 0.00046176163 0
-10.000384 0.0015486445 0
-8.465745 -3.0775862 0
-9.9969153 -0.0059520504 0
-9.9999954 2.4876869e-05 0
-10.001896 0.0012913976 0
-10.001103 -0.012370923 0
-9.9996908 0.011546046 0
-9.9999675 -6.6122218e-05 0
-9.9999673 1.745133e-05 0
-9.9999672 1.8992044e-05 0
-9.9999667 2.042295e-05 0
-9.9999761 2.1782813e-05 0
-9.9999872 4.7297699e-05 0
-10.020695 0.028783696 0
4.1908192 9.3773359 0
-9.9947385 0.3934291 0
-9.9851358 0.46160409 0
-9.9841668 0.45105651 0
-9.9851634 0.45363231 0
-10.00927 0.31045175 0
-10.076777 -0.10124906 0
-10.000593 0.0037293818 0
-9.9903412 -0.093752566 0
-9.9999773 1.1750499e-05 0
-9.9999752 2.5773693e-05 0
-10.000041 0.00010314179 0
-10.002861 0.0039362101 0
-9.9573853 0.48968746 0
-9.9999669 -7.3272491e-06 0
-9.9999667 0.0001157663 0
-9.9999631 -0.011518862 0
-9.9994844 0.011546086 0
-9.9999515 -5.3249682e-05 0
-9.9999519 3.0099679e-05 0
-9.9999514 3.1654979e-05 0
-9.9999503 3.3087512e-05 0
-9.9999491 3.4098805e-05 0
-9.999952 3.6497058e-05 0
-10.000012 7.0743663e-05 0
-10.001024 0.00027137757 0
-10.000101 -2.6305983e-05 0
-10.000052 2.5300446e-05 0
-10.000051 2.7949278e-05 0
-10.000054 2.8450033e-05 0
-10.000052 2.6232911e-05 0
-10.000027 2.6276821e-05 0
-10.000132 0.0020492665 0
-10.010909 0.091223485 0
-9.9999383 -4.994057e-05 0
-9.9999431 3.7214053e-05 0
-9.9999517 3.9241162e-05 0
-9.9999787 5.105921e-05 0
-10.000014 1.7605306e-05 0
-9.9999491 3.4436614e-05 0
-9.9999447 0.00012320861 0
-9.9999359 -0.011507595 0
-9.9992961 0.011549999 0
-9.99986 -5.2317296e-05 0
-9.9998587 3.2100643e-05 0
-9.9998582 3.3640076e-05 0
-9.9998577 3.3615738e-05 0
-9.9998562 3.4580511e-05 0
-9.9998555 3.6070936e-05 0
-9.9998485 3.6836347e-05 0
-9.9998495 3.6756796e-05 0
-9.9998467 3.7298668e-05 0
-9.999844 3.9473354e-05 0
-9.999844 3.9466264e-05 0
-9.9998434 3.9460293e-05 0
-9.9998433 3.9922567e-05 0
-9.9998456 4.7315464e-05 0
-9.9994713 0.0017676312 0
-9.0333788 4.9192262 0
-9.9998327 -0.0003803954 0
-9.9998414 3.9638916e-05 0
-9.9998323 4.1384843e-05 0
-9.9998319 4.2461393e-05 0
-9.9998235 4.2773086e-05 0
-9.9998227 4.4383986e-05 0
-9.9998231 0.00012811081 0
-9.9998352 -0.011507126 0
-10.010189 0.010908283 0
-10.011456 -2.8122358e-05 0
-10.011453 4.2374129e-05 0
-10.011452 4.4181835e-05 0
-10.011451 4.5166459e-05 0
-10.011451 4.5647244e-05 0
-10.01145 4.5663875e-05 0
-10.011451 4.5645205e-05 0
-10.011458 4.6163136e-05 0
-10.011458 4.6166026e-05 0
-10.011456 4.6145134e-05 0
-10.011448 4.7159714e-05 0
-10.011448 4.7624663e-05 0
-10.011447 4.8629711e-05 0
-10.011458 5.3491679e-05 0
-10.012519 0.0018502367 0
-10.016012 -0.0051013656 0
-10.011476 2.3214153e-05 0
-10.011454 4.875557e-05 0
-10.011446 5.0075904e-05 0
-10.011443 5.1599842e-05 0
-10.011444 5.155662e-05 0
-10.011435 5.3130416e-05 0
-10.011439 0.00012487471 0
-10.010799 -0.010858052 0
9.3664052 -3.8409628 0
10.642874 -1.7715405 0
-3.1863079 -7.4321613 0
6.9879243 -11.314255 0
0.49901646 -3.377841 0
-7.5262694 -8.861141 0
5.5019067 -7.5420073 0
3.9252414 -12.156884 0
-5.0964539 5.3819152 0
8.9102441 -3.697865 0
-0.84368748 -12.965221 0
2.3810077 10.992001 0
6.463336 -4.7678255 0
-3.0515896 0.29420306 0
-2.5114656 -0.60438441 0
-0.98037733 -1.7809919 0
-4.2854903 0.71661452 0
11.248209 -10.569266 0
-5.8990722 15.381095 0
-9.1326091 1.5637486 0
8.0545789 0.60231763 0
0.3835038 10.091999 0
8.2407257 4.6845361 0
-2.6282259 22.954801 0
-9.4473809 5.547009 0
8.1454474 -4.1811283 0
11.154002 -0.41898877 0
5.2462558 0.038979673 0
2.9472183 7.8028442 0
1.4924113 8.6389641 0
-4.1457018 -12.183656 0
7.2573549 4.0588833 0
-7.1320978 -7.5115841 0
-3.3258254 7.0677762 0
7.7611709 -7.2695604 0
-3.9335185 -0.043116982 0
-22.060832 -2.2693453 0
5.9837442 -2.9085352 0
15.45167 1.2919469 0
-7.400012 8.0910422 0
-6.2758995 -2.014843 0
6.438606 0.50200305 0
-2.811183 -8.3959892 0
-2.4777593 7.3958524 0
-6.7807493 0.94410423 0
-6.5277078 5.433105 0
-5.6886518 6.92311 0
5.2326315 0.49356253 0
-6.2186395 14.967488 0
-0.12020987 9.339586 0
8.2356711 -6.0207557 0
0.46062496 -0.22493901 0
7.9096366 3.2174504 0
1.4420742 -15.855194 0
-6.6864661 -13.896521 0
7.4130626 -4.076839 0
6.0874544 -15.118618 0
2.2090778 -9.3982937 0
1.3789919 8.7014709 0
2.3962676 -4.9648278 0
0.93816442 -7.4068185 0
16.218342 -6.6907502 0
6.8722546 -1.9272054 0
12.692202 2.5667931 0
-0.24513316 4.1822689 0
-7.0587215 -1.9989072 0
4.9563581 0.70094136 0
6.5541828 0.24902798 0
-3.8474321 5.4174797 0
-2.3074336 14.093036 0
5.2748087 6.1530669 0
-1.9511445 11.640297 0
6.353344 7.1119969 0
-6.5074431 10.585432 0
-0.6404018 -5.8048806 0
-6.5485205 -6.7367896 0
-1.9776486 -10.564117 0
-11.274941 -3.4768079 0
-2.3353237 -1.3838357 0
1.9071707 -0.2339166 0
-9.3459917 0.6220831 0
1.781276 -4.3381481 0
5.7248763 0.88496575 0
8.7553435 -4.5250783 0
0.44214826 1.535973 0
-14.52306 4.5567602 0
0.66268384 0.41875916 0
-2.688888 -1.5188834 0
6.1428022 -0.77494266 0
0.9085786 -1.7000855 0
0.51457169 -7.4453966 0
-13.5876 -7.6615524 0
5.685537 11.719309 0
0.79584353 -3.7601383 0
-6.0765835 13.793872 0
9.6269335 -0.068623339 0
10.379601 1.0410006 0
6.0137887 1.4600817 0
3.8392254 -1.9672911 0
7.0375688 8.2929046 0
8.3179314 -8.7025673 0
3.8583841 -0.48688157 0
-1.5786605 -5.4124772 0
-0.82179566 -6.7673419 0
2.3932899 -7.945748 0
11.800166 -8.9790002 0
-5.8369757 5.1925806 0
8.8662499 -6.7467084 0
-7.1433072 -35.052887 0