# vtk DataFile Version 4.0
hesp visualization file
ASCII
DATASET UNSTRUCTURED_GRID
POINTS 1250 double
30.922464 1.1224637 4
30.922464 2.2449241 4
30.922464 3.3673861 4
30.922464 4.4898482 4
30.922464 5.6123102 4
30.922464 6.7347723 4
30.922464 7.8572343 4
30.922464 8.9796964 4
30.922464 10.102158 4
30.922464 11.22462 4
30.922464 12.347083 4
30.922464 13.469545 4
30.922464 14.592007 4
30.922464 15.714469 4
30.922464 16.836931 4
30.922464 17.959393 4
30.922464 19.081855 4
30.922464 20.204317 4
30.922464 21.326779 4
30.922464 22.449241 4
30.922464 23.571703 4
30.922464 24.694165 4
30.922464 25.816627 4
30.922464 26.939089 4
30.922464 28.06155 4
32.044924 1.1224638 4
32.044924 2.2449241 4
32.044924 3.3673861 4
32.044924 4.4898482 4
32.044924 5.6123102 4
32.044924 6.7347723 4
32.044924 7.8572343 4
32.044924 8.9796964 4
32.044924 10.102158 4
32.044924 11.22462 4
32.044924 12.347083 4
32.044924 13.469545 4
32.044924 14.592007 4
32.044924 15.714469 4
32.044924 16.836931 4
32.044924 17.959393 4
32.044924 19.081855 4
32.044924 20.204317 4
32.044924 21.326779 4
32.044924 22.449241 4
32.044924 23.571703 4
32.044924 24.694165 4
32.044924 25.816627 4
32.044924 26.939089 4
32.044924 28.061549 4
33.167386 1.1224638 4
33.167386 2.2449241 4
33.167386 3.3673861 4
33.167386 4.4898482 4
33.167386 5.6123102 4
33.167386 6.7347723 4
33.167386 7.8572343 4
33.167386 8.9796964 4
33.167386 10.102158 4
33.167386 11.22462 4
33.167386 12.347083 4
33.167386 13.469545 4
33.167386 14.592007 4
33.167386 15.714469 4
33.167386 16.836931 4
33.167386 17.959393 4
33.167386 19.081855 4
33.167386 20.204317 4
33.167386 21.326779 4
33.167386 22.449241 4
33.167386 23.571703 4
33.167386 24.694165 4
33.167386 25.816627 4
33.167386 26.939089 4
33.167386 28.061549 4
34.289848 1.1224638 4
34.289848 2.2449241 4
34.289848 3.3673861 4
34.289848 4.4898482 4
34.289848 5.6123102 4
34.289848 6.7347723 4
34.289848 7.8572343 4
34.289848 8.9796964 4
34.289848 10.102158 4
34.289848 11.22462 4
34.289848 12.347083 4
34.289848 13.469545 4
34.289848 14.592007 4
34.289848 15.714469 4
34.289848 16.836931 4
34.289848 17.959393 4
34.289848 19.081855 4
34.289848 20.204317 4
34.289848 21.326779 4
34.289848 22.449241 4
34.289848 23.571703 4
34.289848 24.694165 4
34.289848 25.816627 4
34.289848 26.939089 4
34.289848 28.061549 4
35.41231 1.1224638 4
35.41231 2.2449241 4
35.41231 3.3673861 4
35.41231 4.4898482 4
35.41231 5.6123102 4
35.41231 6.7347723 4
35.41231 7.8572343 4
35.41231 8.9796964 4
35.41231 10.102158 4
35.41231 11.22462 4
35.41231 12.347083 4
35.41231 13.469545 4
35.41231 14.592007 4
35.41231 15.714469 4
35.41231 16.836931 4
35.41231 17.959393 4
35.41231 19.081855 4
35.41231 20.204317 4
35.41231 21.326779 4
35.41231 22.449241 4
35.41231 23.571703 4
35.41231 24.694165 4
35.41231 25.816627 4
35.41231 26.939089 4
35.41231 28.061549 4
36.534772 1.1224638 4
36.534772 2.2449241 4
36.534772 3.3673861 4
36.534772 4.4898482 4
36.534772 5.6123102 4
36.534772 6.7347723 4
36.534772 7.8572343 4
36.534772 8.9796964 4
36.534772 10.102158 4
36.534772 11.22462 4
36.534772 12.347083 4
36.534772 13.469545 4
36.534772 14.592007 4
36.534772 15.714469 4
36.534772 16.836931 4
36.534772 17.959393 4
36.534772 19.081855 4
36.534772 20.204317 4
36.534772 21.326779 4
36.534772 22.449241 4
36.534772 23.571703 4
36.534772 24.694165 4
36.534772 25.816627 4
36.534772 26.939089 4
36.534772 28.061549 4
37.657234 1.1224638 4
37.657234 2.2449241 4
37.657234 3.3673861 4
37.657234 4.4898482 4
37.657234 5.6123102 4
37.657234 6.7347723 4
37.657234 7.8572343 4
37.657234 8.9796964 4
37.657234 10.102158 4
37.657234 11.22462 4
37.657234 12.347083 4
37.657234 13.469545 4
37.657234 14.592007 4
37.657234 15.714469 4
37.657234 16.836931 4
37.657234 17.959393 4
37.657234 19.081855 4
37.657234 20.204317 4
37.657234 21.326779 4
37.657234 22.449241 4
37.657234 23.571703 4
37.657234 24.694165 4
37.657234 25.816627 4
37.657234 26.939089 4
37.657234 28.061549 4
38.779696 1.1224638 4
38.779696 2.2449241 4
38.779696 3.3673861 4
38.779696 4.4898482 4
38.779696 5.6123102 4
38.779696 6.7347723 4
38.779696 7.8572343 4
38.779696 8.9796964 4
38.779696 10.102158 4
38.779696 11.22462 4
38.779696 12.347083 4
38.779696 13.469545 4
38.779696 14.592007 4
38.779696 15.714469 4
38.779696 16.836931 4
38.779696 17.959393 4
38.779696 19.081855 4
38.779696 20.204317 4
38.779696 21.326779 4
38.779696 22.449241 4
38.779696 23.571703 4
38.779696 24.694165 4
38.779696 25.816627 4
38.779696 26.939089 4
38.779696 28.061549 4
39.902158 1.1224638 4
39.902158 2.2449241 4
39.902158 3.3673861 4
39.902158 4.4898482 4
39.902158 5.6123102 4
39.902158 6.7347723 4
39.902158 7.8572343 4
39.902158 8.9796964 4
39.902158 10.102158 4
39.902158 11.22462 4
39.902158 12.347083 4
39.902158 13.469545 4
39.902158 14.592007 4
39.902158 15.714469 4
39.902158 16.836931 4
39.902158 17.959393 4
39.902158 19.081855 4
39.902158 20.204317 4
39.902158 21.326779 4
39.902158 22.449241 4
39.902158 23.571703 4
39.902158 24.694165 4
39.902158 25.816627 4
39.902158 26.939089 4
39.902158 28.061549 4
41.02462 1.1224638 4
41.02462 2.2449241 4
41.02462 3.3673861 4
41.02462 4.4898482 4
41.02462 5.6123102 4
41.02462 6.7347723 4
41.02462 7.8572343 4
41.02462 8.9796964 4
41.02462 10.102158 4
41.02462 11.22462 4
41.02462 12.347083 4
41.02462 13.469545 4
41.02462 14.592007 4
41.02462 15.714469 4
41.02462 16.836931 4
41.02462 17.959393 4
41.02462 19.081855 4
41.02462 20.204317 4
41.02462 21.326779 4
41.02462 22.449241 4
41.02462 23.571703 4
41.02462 24.694165 4
41.02462 25.816627 4
41.02462 26.939089 4
41.02462 28.061549 4
42.147083 1.1224638 4
42.147083 2.2449241 4
42.147083 3.3673861 4
42.147083 4.4898482 4
42.147083 5.6123102 4
42.147083 6.7347723 4
42.147083 7.8572343 4
42.147083 8.9796964 4
42.147083 10.102158 4
42.147083 11.22462 4
42.147083 12.347083 4
42.147083 13.469545 4
42.147083 14.592007 4
42.147083 15.714469 4
42.147083 16.836931 4
42.147083 17.959393 4
42.147083 19.081855 4
42.147083 20.204317 4
42.147083 21.326779 4
42.147083 22.449241 4
42.147083 23.571703 4
42.147083 24.694165 4
42.147083 25.816627 4
42.147083 26.939089 4
42.147083 28.061549 4
43.269545 1.1224638 4
43.269545 2.2449241 4
43.269545 3.3673861 4
43.269545 4.4898482 4
43.269545 5.6123102 4
43.269545 6.7347723 4
43.269545 7.8572343 4
43.269545 8.9796964 4
43.269545 10.102158 4
43.269545 11.22462 4
43.269545 12.347083 4
43.269545 13.469545 4
43.269545 14.592007 4
43.269545 15.714469 4
43.269545 16.836931 4
43.269545 17.959393 4
43.269545 19.081855 4
43.269545 20.204317 4
43.269545 21.326779 4
43.269545 22.449241 4
43.269545 23.571703 4
43.269545 24.694165 4
43.269545 25.816627 4
43.269545 26.939089 4
43.269545 28.061549 4
44.392007 1.1224638 4
44.392007 2.2449241 4
44.392007 3.3673861 4
44.392007 4.4898482 4
44.392007 5.6123102 4
44.392007 6.7347723 4
44.392007 7.8572343 4
44.392007 8.9796964 4
44.392007 10.102158 4
44.392007 11.22462 4
44.392007 12.347083 4
44.392007 13.469545 4
44.392007 14.592007 4
44.392007 15.714469 4
44.392007 16.836931 4
44.392007 17.959393 4
44.392007 19.081855 4
44.392007 20.204317 4
44.392007 21.326779 4
44.392007 22.449241 4
44.392007 23.571703 4
44.392007 24.694165 4
44.392007 25.816627 4
44.392007 26.939089 4
44.392007 28.061549 4
45.514469 1.1224638 4
45.514469 2.2449241 4
45.514469 3.3673861 4
45.514469 4.4898482 4
45.514469 5.6123102 4
45.514469 6.7347723 4
45.514469 7.8572343 4
45.514469 8.9796964 4
45.514469 10.102158 4
45.514469 11.22462 4
45.514469 12.347083 4
45.514469 13.469545 4
45.514469 14.592007 4
45.514469 15.714469 4
45.514469 16.836931 4
45.514469 17.959393 4
45.514469 19.081855 4
45.514469 20.204317 4
45.514469 21.326779 4
45.514469 22.449241 4
45.514469 23.571703 4
45.514469 24.694165 4
45.514469 25.816627 4
45.514469 26.939089 4
45.514469 28.061549 4
46.636931 1.1224638 4
46.636931 2.2449241 4
46.636931 3.3673861 4
46.636931 4.4898482 4
46.636931 5.6123102 4
46.636931 6.7347723 4
46.636931 7.8572343 4
46.636931 8.9796964 4
46.636931 10.102158 4
46.636931 11.22462 4
46.636931 12.347083 4
46.636931 13.469545 4
46.636931 14.592007 4
46.636931 15.714469 4
46.636931 16.836931 4
46.636931 17.959393 4
46.636931 19.081855 4
46.636931 20.204317 4
46.636931 21.326779 4
46.636931 22.449241 4
46.636931 23.571703 4
46.636931 24.694165 4
46.636931 25.816627 4
46.636931 26.939089 4
46.636931 28.061549 4
47.759393 1.1224638 4
47.759393 2.2449241 4
47.759393 3.3673861 4
47.759393 4.4898482 4
47.759393 5.6123102 4
47.759393 6.7347723 4
47.759393 7.8572343 4
47.759393 8.9796964 4
47.759393 10.102158 4
47.759393 11.22462 4
47.759393 12.347083 4
47.759393 13.469545 4
47.759393 14.592007 4
47.759393 15.714469 4
47.759393 16.836931 4
47.759393 17.959393 4
47.759393 19.081855 4
47.759393 20.204317 4
47.759393 21.326779 4
47.759393 22.449241 4
47.759393 23.571703 4
47.759393 24.694165 4
47.759393 25.816627 4
47.759393 26.939089 4
47.759393 28.061549 4
48.881855 1.1224638 4
48.881855 2.2449241 4
48.881855 3.3673861 4
48.881855 4.4898482 4
48.881855 5.6123102 4
48.881855 6.7347723 4
48.881855 7.8572343 4
48.881855 8.9796964 4
48.881855 10.102158 4
48.881855 11.22462 4
48.881855 12.347083 4
48.881855 13.469545 4
48.881855 14.592007 4
48.881855 15.714469 4
48.881855 16.836931 4
48.881855 17.959393 4
48.881855 19.081855 4
48.881855 20.204317 4
48.881855 21.326779 4
48.881855 22.449241 4
48.881855 23.571703 4
48.881855 24.694165 4
48.881855 25.816627 4
48.881855 26.939089 4
48.881855 28.061549 4
50.004317 1.1224638 4
50.004317 2.2449241 4
50.004317 3.3673861 4
50.004317 4.4898482 4
50.004317 5.6123102 4
50.004317 6.7347723 4
50.004317 7.8572343 4
50.004317 8.9796964 4
50.004317 10.102158 4
50.004317 11.22462 4
50.004317 12.347083 4
50.004317 13.469545 4
50.004317 14.592007 4
50.004317 15.714469 4
50.004317 16.836931 4
50.004317 17.959393 4
50.004317 19.081855 4
50.004317 20.204317 4
50.004317 21.326779 4
50.004317 22.449241 4
50.004317 23.571703 4
50.004317 24.694165 4
50.004317 25.816627 4
50.004317 26.939089 4
50.004317 28.061549 4
51.126779 1.1224638 4
51.126779 2.2449241 4
51.126779 3.3673861 4
[...]
POINT_DATA 1250
SCALARS m double
LOOKUP_TABLE default
1
1
1
1
1
1
1
1
1
1
1
1
1
1
1
1
1
1
1
1
1
1
1
1
1
1
1
1
1
1
1
1
1
1
1
1
1
1
1
1
1
1
1
1
1
1
1
1
1
1
1
1
1
1
1
1
1
1
1
1
1
1
1
1
1
1
1
1
1
1
1
1
1
1
1
1
1
1
1
1
1
1
1
1
1
1
1
1
1
1
1
1
1
1
1
1
1
1
1
1
1
1
1
1
1
1
1
1
1
1
1
1
1
1
1
1
1
1
1
1
1
1
1
1
1
1
1
1
1
1
1
1
1
1
1
1
1
1
1
1
1
1
1
1
1
1
1
1
1
1
1
1
1
1
1
1
1
1
1
1
1
1
1
1
1
1
1
1
1
1
1
1
1
1
1
1
1
1
1
1
1
1
1
1
1
1
1
1
1
1
1
1
1
1
1
1
1
1
1
1
1
1
1
1
1
1
1
1
1
1
1
1
1
1
1
1
1
1
1
1
1
1
1
1
1
1
1
1
1
1
1
1
1
1
1
1
1
1
1
1
1
1
1
1
1
1
1
1
1
1
1
1
1
1
1
1
1
1
1
1
1
1
1
1
1
1
1
1
1
1
1
1
1
1
1
1
1
1
1
1
1
1
1
1
1
1
1
1
1
1
1
1
1
1
1
1
1
1
1
1
1
1
1
1
1
1
1
1
1
1
1
1
1
1
1
1
1
1
1
1
1
1
1
1
1
1
1
1
1
1
1
1
1
1
1
1
1
1
1
1
1
1
1
1
1
1
1
1
1
1
1
1
1
1
1
1
1
1
1
1
1
1
1
1
1
1
1
1
1
1
1
1
1
1
1
1
1
1
1
1
1
1
1
1
1
1
1
1
1
1
1
1
1
1
1
1
1
1
1
1
1
1
1
1
1
1
1
1
1
1
1
1
1
1
1
1
1
1
1
1
1
1
1
1
1
1
1
1
1
1
1
1
1
1
1
1
1
1
1
1
1
1
1
1
1
1
1
1
1
1
1
1
1
1
1
1
1
1
1
1
1
1
1
1
1
1
1
1
1
1
1
1
1
1
1
1
1
1
1
1
1
1
1
1
1
1
1
1
1
1
1
1
1
1
1
1
1
1
1
1
1
1
1
1
1
1
1
1
1
1
1
1
1
1
1
1
1
1
1
1
1
1
1
1
1
1
1
1
1
1
1
1
1
1
1
1
1
1
1
1
1
1
1
1
1
1
1
1
1
1
1
1
1
1
1
1
1
1
1
1
1
1
1
1
1
1
1
1
1
1
1
1
1
1
1
1
1
1
1
1
1
1
1
1
1
1
1
1
1
1
1
1
1
1
1
1
1
1
1
1
1
1
1
1
1
1
1
1
1
1
1
1
1
1
1
1
1
1
1
1
1
1
1
1
1
1
1
1
1
1
1
1
1
1
1
1
1
1
1
1
1
1
1
1
1
1
1
1
1
1
1
1
1
1
1
1
1
1
1
1
1
1
1
1
1
1
1
1
1
1
1
1
1
1
1
1
1
1
1
1
1
1
1
1
1
1
1
1
1
1
1
1
1
1
1
1
1
1
1
1
1
1
1
1
1
1
1
1
1
1
1
1
1
1
1
1
1
1
1
1
1
1
1
1
1
1
1
1
1
1
1
1
1
1
1
1
1
1
1
1
1
1
1
1
1
1
1
1
1
1
1
1
1
1
1
1
1
1
1
1
1
1
1
1
1
1
1
1
1
1
1
1
1
1
1
1
1
1
1
1
1
1
1
1
1
1
1
1
1
1
1
1
1
1
1
1
1
1
1
1
1
1
1
1
1
1
1
1
1
1
1
1
1
1
1
1
1
1
1
1
1
1
1
1
1
1
1
1
1
1
1
1
1
1
1
1
1
1
1
1
1
1
1
1
1
1
1
1
1
1
1
1
1
1
1
1
1
1
1
1
1
1
1
1
1
1
1
1
1
1
1
1
1
1
1
1
1
1
1
1
1
1
1
1
1
1
1
1
1
1
1
1
1
1
1
1
1
1
1
1
1
1
1
1
1
1
1
1
1
1
1
1
1
1
1
1
1
1
1
1
1
1
1
1
1
1
1
1
1
1
1
1
1
1
1
1
1
1
1
1
1
1
1
1
1
1
1
1
1
1
1
1
1
1
1
1
1
1
1
1
1
1
1
1
1
1
1
1
1
1
1
1
1
1
1
1
1
1
1
1
1
1
1
1
1
1
1
1
1
1
1
1
1
1
1
1
1
1
1
1
1
1
1
1
1
1
1
1
1
1
1
1
1
1
1
1
1
1
1
1
1
1
1
1
1
1
1
1
1
1
1
1
1
1
1
1
1
1
1
1
1
1
1
1
1
1
1
1
1
1
1
1
1
1
1
1
1
1
1
1
1
1
1
1
1
1
1
1
1
1
1
1
1
1
1
1
1
1
1
1
1
1
1
1
1
1
1
1
1
1
1
1
1
1
1
1
1
1
1
1
1
1
1
1
1
1
1
1
1
1
1
1
1
1
1
1
1
1
1
1
1
1
1
1
1
1
1
1
1
1
1
1
1
1
1
1
1
1
1
1
1
1
1
1
1
1
1
1
1
1
1
1
1
1
1
1
1
1
1
1
1
1
1
1
1
1
1
1
1
1
1
1
1
1
1
1
1
1
1
1
1
1
1
1
1
1
1
1
1
1
1
1
1
1
1
1
1
1
1
1
1
1
1
1
1
1
1
1
1
1
1
1
1
1
1
1
1
1
1
1
1
1
1
1
1
1
1
1
1
1
1
1
1
1
1
1
1
1
1
1
1
1
1
1
1
1
1
1
1
1
VECTORS v double
-9.9998367 0.00016718938 0
-9.9998278 1.2171846e-06 0
-9.9998278 -6.1696757e-12 0
-9.9998278 -1.5236141e-14 0
-9.9998278 1.9771284e-16 0
-9.9998278 1.8644767e-16 0
-9.9998278 1.8696444e-16 0
-9.9998278 1.3781987e-16 0
-9.9998278 3.0279012e-16 0
-9.9998278 8.754206e-17 0
-9.9998278 1.8538067e-16 0
-9.9998278 2.8340901e-16 0
-9.9998278 8.771697e-17 0
-9.9998278 1.8312178e-16 0
-9.9998278 5.5172452e-16 0
-9.9998278 8.4832764e-16 0
-9.9998278 1.5653631e-16 0
-9.9998278 2.5927128e-16 0
-9.9998278 2.6367533e-16 0
-9.9998278 3.5569659e-16 0
-9.9998278 1.6028181e-16 0
-9.9998278 1.5682871e-14 0
-9.9998278 6.1699886e-12 0
-9.9998278 -1.2171845e-06 0
-9.9998367 -0.00016718939 0
-9.9999988 0.00017645854 0
-9.9999988 1.2171412e-06 0
-9.9999988 -6.3924877e-12 0
-9.9999988 -1.5429014e-14 0
-9.9999988 1.0664352e-17 0
-9.9999988 -7.4828221e-19 0
-9.9999988 -1.5755449e-19 0
-9.9999988 -5.0455182e-17 0
-9.9999988 1.1863684e-16 0
-9.9999988 -1.0210816e-16 0
-9.9999988 -1.6923266e-18 0
-9.9999988 9.8957627e-17 0
-9.9999988 -1.0151269e-16 0
-9.9999988 -4.2885196e-18 0
-9.9999988 2.0269069e-18 0
-9.9999988 1.0557487e-16 0
-9.9999988 -1.0571882e-16 0
-9.9999988 -3.6523825e-19 0
-9.9999988 4.0944509e-18 0
-9.9999988 9.8627704e-17 0
-9.9999988 -1.0178854e-16 0
-9.9999988 1.5423144e-14 0
-9.9999988 6.3924803e-12 0
-9.9999988 -1.2171412e-06 0
-9.9999988 -0.00017645854 0
-10 0.00017645852 0
-10 1.2171393e-06 0
-10 -6.3924845e-12 0
-10 -1.5428998e-14 0
-10 1.0702417e-17 0
-10 -7.3426526e-19 0
-10 -1.5321068e-19 0
-10 -5.0479558e-17 0
-10 1.1862906e-16 0
-10 -1.0211341e-16 0
-10 -1.7255816e-18 0
-10 9.8894234e-17 0
-10 -1.015634e-16 0
-10 -4.2365906e-18 0
-10 2.0534328e-18 0
-10 1.0558834e-16 0
-10 -1.0572951e-16 0
-10 -3.6492286e-19 0
-10 4.1054464e-18 0
-10 9.8620624e-17 0
-10 -1.0184638e-16 0
-10 1.5423062e-14 0
-10 6.3924752e-12 0
-10 -1.2171393e-06 0
-10 -0.00017645852 0
-10 0.00017645852 0
-10 1.2171393e-06 0
-10 -6.3924843e-12 0
-10 -1.5429007e-14 0
-10 1.0724571e-17 0
-10 -7.2039831e-19 0
-10 -1.5615882e-19 0
-10 -5.049169e-17 0
-10 1.1861617e-16 0
-10 -1.0211646e-16 0
-10 -1.7400218e-18 0
-10 9.8868976e-17 0
-10 -1.0159116e-16 0
-10 -4.2265997e-18 0
-10 2.0640189e-18 0
-10 1.0560078e-16 0
-10 -1.0572646e-16 0
-10 -3.6488948e-19 0
-10 4.0977471e-18 0
-10 9.8623527e-17 0
-10 -1.0187288e-16 0
-10 1.5423011e-14 0
-10 6.392475e-12 0
-10 -1.2171393e-06 0
-10 -0.00017645852 0
-10 0.00017645852 0
-10 1.2171393e-06 0
-10 -6.3924842e-12 0
-10 -1.5428995e-14 0
-10 1.0668994e-17 0
-10 -7.3510553e-19 0
-10 -1.4990224e-19 0
-10 -5.0458391e-17 0
-10 1.1861382e-16 0
-10 -1.0210069e-16 0
-10 -1.7118741e-18 0
-10 9.8900575e-17 0
-10 -1.0150572e-16 0
-10 -4.2737323e-18 0
-10 2.0291567e-18 0
-10 1.0557142e-16 0
-10 -1.0571176e-16 0
-10 -3.6498198e-19 0
-10 4.0855569e-18 0
-10 9.8657497e-17 0
-10 -1.01845e-16 0
-10 1.5423081e-14 0
-10 6.3924751e-12 0
-10 -1.2171393e-06 0
-10 -0.00017645852 0
-10 0.00017645852 0
-10 1.2171393e-06 0
-10 -6.3924844e-12 0
-10 -1.5428966e-14 0
-10 1.067378e-17 0
-10 -7.5065578e-19 0
-10 -1.4771027e-19 0
-10 -5.0444372e-17 0
-10 1.1861191e-16 0
-10 -1.0208648e-16 0
-10 -1.7185993e-18 0
-10 9.8899006e-17 0
-10 -1.014992e-16 0
-10 -4.2750143e-18 0
-10 2.0392147e-18 0
-10 1.0557172e-16 0
-10 -1.0571568e-16 0
-10 -3.6538443e-19 0
-10 4.0868803e-18 0
-10 9.8658438e-17 0
-10 -1.0183659e-16 0
-10 1.542313e-14 0
-10 6.3924749e-12 0
-10 -1.2171393e-06 0
-10 -0.00017645852 0
-10 0.00017645852 0
-10 1.2171393e-06 0
-10 -6.3924844e-12 0
-10 -1.5428988e-14 0
-10 1.0674264e-17 0
-10 -7.3601082e-19 0
-10 -1.5095465e-19 0
-10 -5.0446587e-17 0
-10 1.1862225e-16 0
-10 -1.0210952e-16 0
-10 -1.7105315e-18 0
-10 9.8911477e-17 0
-10 -1.0150963e-16 0
-10 -4.2708352e-18 0
-10 2.044937e-18 0
-10 1.0557215e-16 0
-10 -1.0571519e-16 0
-10 -3.6488948e-19 0
-10 4.0847367e-18 0
-10 9.8659957e-17 0
-10 -1.0184767e-16 0
-10 1.5423118e-14 0
-10 6.3924749e-12 0
-10 -1.2171393e-06 0
-10 -0.00017645852 0
-10 0.00017645852 0
-10 1.2171393e-06 0
-10 -6.3924844e-12 0
-10 -1.5428987e-14 0
-10 1.0670795e-17 0
-10 -7.273372e-19 0
-10 -1.5095465e-19 0
-10 -5.0455261e-17 0
-10 1.1862225e-16 0
-10 -1.0210952e-16 0
-10 -1.7018578e-18 0
-10 9.8920151e-17 0
-10 -1.015183e-16 0
-10 -4.2708352e-18 0
-10 2.0275897e-18 0
-10 1.0557215e-16 0
-10 -1.0571519e-16 0
-10 -3.6488948e-19 0
-10 4.0847367e-18 0
-10 9.8659957e-17 0
-10 -1.0184778e-16 0
-10 1.5423095e-14 0
-10 6.392475e-12 0
-10 -1.2171393e-06 0
-10 -0.00017645852 0
-10 0.00017645852 0
-10 1.2171393e-06 0
-10 -6.3924844e-12 0
-10 -1.5428967e-14 0
-10 1.0666392e-17 0
-10 -7.3770761e-19 0
-10 -1.4990224e-19 0
-10 -5.0458391e-17 0
-10 1.1861382e-16 0
-10 -1.0210069e-16 0
-10 -1.7118741e-18 0
-10 9.8900575e-17 0
-10 -1.0150572e-16 0
-10 -4.2737323e-18 0
-10 2.0291567e-18 0
-10 1.0557142e-16 0
-10 -1.0571176e-16 0
-10 -3.6498198e-19 0
-10 4.0855569e-18 0
-10 9.8657497e-17 0
-10 -1.0184492e-16 0
-10 1.5423106e-14 0
-10 6.392475e-12 0
-10 -1.2171393e-06 0
-10 -0.00017645852 0
-10 0.00017645852 0
-10 1.2171393e-06 0
-10 -6.3924843e-12 0
-10 -1.5429004e-14 0
-10 1.0675999e-17 0
-10 -7.4468443e-19 0
-10 -1.5095465e-19 0
-10 -5.0446587e-17 0
-10 1.1862225e-16 0
-10 -1.020835e-16 0
-10 -1.7105315e-18 0
-10 9.8902803e-17 0
-10 -1.0150095e-16 0
-10 -4.2708352e-18 0
-10 2.0275897e-18 0
-10 1.0557215e-16 0
-10 -1.0571519e-16 0
-10 -3.6488948e-19 0
-10 4.0847367e-18 0
-10 9.8659957e-17 0
-10 -1.01839e-16 0
-10 1.5423105e-14 0
-10 6.392475e-12 0
-10 -1.2171393e-06 0
-10 -0.00017645852 0
-10 0.00017645852 0
-10 1.2171393e-06 0
-10 -6.3924843e-12 0
-10 -1.5429002e-14 0
-10 1.0670311e-17 0
-10 -7.2463492e-19 0
-10 -1.4771027e-19 0
-10 -5.0453046e-17 0
-10 1.1861191e-16 0
-10 -1.021125e-16 0
-10 -1.7185993e-18 0
-10 9.8907679e-17 0
-10 -1.0150787e-16 0
-10 -4.2750143e-18 0
-10 2.0392147e-18 0
-10 1.0557172e-16 0
-10 -1.0571568e-16 0
-10 -3.6538443e-19 0
-10 4.0868803e-18 0
-10 9.8658438e-17 0
-10 -1.0184518e-16 0
-10 1.5423093e-14 0
-10 6.3924751e-12 0
-10 -1.2171393e-06 0
-10 -0.00017645852 0
-10 0.00017645852 0
-10 1.2171393e-06 0
-10 -6.3924843e-12 0
-10 -1.5428983e-14 0
-10 1.0673331e-17 0
-10 -7.4638123e-19 0
-10 -1.4990224e-19 0
-10 -5.0449717e-17 0
-10 1.1861382e-16 0
-10 -1.0210069e-16 0
-10 -1.7118741e-18 0
-10 9.8900575e-17 0
-10 -1.0149705e-16 0
-10 -4.2737323e-18 0
-10 2.046504e-18 0
-10 1.0557142e-16 0
-10 -1.0571176e-16 0
-10 -3.6498198e-19 0
-10 4.0855569e-18 0
-10 9.8657497e-17 0
-10 -1.0183633e-16 0
-10 1.5423104e-14 0
-10 6.392475e-12 0
-10 -1.2171393e-06 0
-10 -0.00017645852 0
-10 0.00017645852 0
-10 1.2171393e-06 0
-10 -6.3924844e-12 0
-10 -1.5428968e-14 0
-10 1.0674264e-17 0
-10 -7.4468443e-19 0
-10 -1.5095465e-19 0
-10 -5.0455261e-17 0
-10 1.1862225e-16 0
-10 -1.020835e-16 0
-10 -1.7105315e-18 0
-10 9.8902803e-17 0
-10 -1.0150963e-16 0
-10 -4.2708352e-18 0
-10 2.0275897e-18 0
-10 1.0557215e-16 0
-10 -1.0571519e-16 0
-10 -3.6488948e-19 0
-10 4.0847367e-18 0
-10 9.8659957e-17 0
-10 -1.018477e-16 0
-10 1.5423128e-14 0
-10 6.3924748e-12 0
-10 -1.2171393e-06 0
-10 -0.00017645852 0
-10 0.00017645852 0
-10 1.2171393e-06 0
-10 -6.3924843e-12 0
-10 -1.5428981e-14 0
-10 1.067253e-17 0
-10 -7.1866358e-19 0
-10 -1.5095465e-19 0
-10 -5.0455261e-17 0
-10 1.1862225e-16 0
-10 -1.0210952e-16 0
-10 -1.7105315e-18 0
-10 9.8911477e-17 0
-10 -1.0150963e-16 0
-10 -4.2708352e-18 0
-10 2.0275897e-18 0
-10 1.0557215e-16 0
-10 -1.0571519e-16 0
-10 -3.6488948e-19 0
-10 4.0847367e-18 0
-10 9.8659957e-17 0
-10 -1.0184772e-16 0
-10 1.5423097e-14 0
-10 6.392475e-12 0
-10 -1.2171393e-06 0
-10 -0.00017645852 0
-10 0.00017645852 0
-10 1.2171393e-06 0
-10 -6.3924843e-12 0
-10 -1.5428981e-14 0
-10 1.0669444e-17 0
-10 -7.3330854e-19 0
-10 -1.4771027e-19 0
-10 -5.0453046e-17 0
-10 1.1861191e-16 0
-10 -1.021125e-16 0
-10 -1.7185993e-18 0
-10 9.8907679e-17 0
-10 -1.0151654e-16 0
-10 -4.2750143e-18 0
-10 2.0392147e-18 0
-10 1.0557172e-16 0
-10 -1.0571568e-16 0
-10 -3.6538443e-19 0
-10 4.0868803e-18 0
-10 9.8658438e-17 0
-10 -1.0184526e-16 0
-10 1.5423097e-14 0
-10 6.392475e-12 0
-10 -1.2171393e-06 0
-10 -0.00017645852 0
-10 0.00017645852 0
-10 1.2171393e-06 0
-10 -6.3924844e-12 0
-10 -1.542897e-14 0
-10 1.0675066e-17 0
-10 -7.4638123e-19 0
-10 -1.4990224e-19 0
-10 -5.0449717e-17 0
-10 1.1861382e-16 0
-10 -1.0210069e-16 0
-10 -1.7118741e-18 0
-10 9.8900575e-17 0
-10 -1.0149705e-16 0
-10 -4.2737323e-18 0
-10 2.046504e-18 0
-10 1.0557142e-16 0
-10 -1.0571176e-16 0
-10 -3.6498198e-19 0
-10 4.0855569e-18 0
-10 9.8657497e-17 0
-10 -1.0183625e-16 0
-10 1.5423128e-14 0
-10 6.3924749e-12 0
-10 -1.2171393e-06 0
-10 -0.00017645852 0
-10 0.00017645852 0
-10 1.2171393e-06 0
-10 -6.3924843e-12 0
-10 -1.5429002e-14 0
-10 1.0675999e-17 0
-10 -7.4468443e-19 0
-10 -1.5095465e-19 0
-10 -5.0455261e-17 0
-10 1.1862225e-16 0
-10 -1.020835e-16 0
-10 -1.7105315e-18 0
-10 9.8902803e-17 0
-10 -1.0150963e-16 0
-10 -4.2705461e-18 0
-10 2.0277825e-18 0
-10 1.0557235e-16 0
-10 -1.0571519e-16 0
-10 -3.6488948e-19 0
-10 4.0847367e-18 0
-10 9.8659764e-17 0
-10 -1.0184786e-16 0
-10 1.5423104e-14 0
-10 6.392475e-12 0
-10 -1.2171393e-06 0
-10 -0.00017645852 0
-10 0.00017645852 0
-10 1.2171393e-06 0
-10 -6.3924844e-12 0
-10 -1.5428987e-14 0
-10 1.0671084e-17 0
-10 -7.1856723e-19 0
-10 -1.5100282e-19 0
-10 -5.0455454e-17 0
-10 1.1862225e-16 0
-10 -1.0210961e-16 0
-10 -1.7107242e-18 0
-10 9.8911188e-17 0
-10 -3.4829976e-15 0
-10 -3.3856908e-15 0
-10 2.0744225e-18 0
-10 1.0561238e-16 0
-10 -1.0572522e-16 0
-10 -3.649488e-19 0
-10 4.0964075e-18 0
-10 9.8616462e-17 0
-10 -1.0187855e-16 0
-10 1.5422995e-14 0
-10 6.392475e-12 0
-10 -1.2171393e-06 0
-10 -0.00017645852 0
-10 0.00017645852 0
-10 1.2171393e-06 0
-10 -6.3924844e-12 0
-10 -1.5428998e-14 0
-10 1.0740064e-17 0
-10 -7.1588891e-19 0
-10 -1.5789909e-19 0
-10 -5.050735e-17 0
-10 1.1861713e-16 0
-10 -1.0212501e-16 0
-10 -1.7528174e-18 0
-10 9.9349947e-17 0
-10 2.2834041e-15 0
-9.9999999 2.3800839e-15 0
-9.9999999 2.3864118e-15 0
-9.9999999 2.0144211e-15 0
-9.9999999 1.8031371e-15 0
-9.9999999 2.3840202e-15 0
-9.9999999 2.3884799e-15 0
-9.9999999 2.4830336e-15 0
-9.9999999 2.2825383e-15 0
-9.9999999 1.7807479e-14 0
-9.9999999 6.3948593e-12 0
-9.9999999 -1.2171393e-06 0
-9.9999999 -0.00017645852 0
-9.9999999 0.00017645852 0
-9.9999999 1.2171393e-06 0
-9.9999999 -6.3901001e-12 0
-9.9999999 -1.3044657e-14 0
-9.9999999 2.395098e-15 0
-9.9999999 2.3836517e-15 0
-9.9999999 2.3842251e-15 0
-9.9999999 2.3338816e-15 0
-9.9999999 2.5030117e-15 0
-9.9999999 2.2822611e-15 0
-9.9999999 2.3826532e-15 0
-9.9999999 -2.9628095e-13 0
-9.9999999 3.1686469e-13 0
-9.9999999 3.8686245e-13 0
-9.9999999 3.8348952e-13 0
-9.9999999 3.8359272e-13 0
-9.9999999 3.8338123e-13 0
-9.9999999 3.8348675e-13 0
-9.9999999 3.834911e-13 0
-9.9999999 3.8358561e-13 0
-9.9999999 3.8338525e-13 0
-9.9999999 3.9890946e-13 0
-9.9999999 6.7759626e-12 0
-9.9999999 -1.2171389e-06 0
-9.9999999 -0.00017645852 0
-9.9999999 0.00017645852 0
-9.9999999 1.2171421e-06 0
-9.9999999 -6.0090004e-12 0
-9.9999999 3.6805658e-13 0
-9.9999999 3.8349711e-13 0
-9.9999999 3.8348552e-13 0
-9.9999999 3.8348609e-13 0
-9.9999999 3.8343494e-13 0
-9.9999999 3.8360428e-13 0
-9.9999999 3.8338349e-13 0
-9.9999999 3.6679913e-13 0
-9.9999999 -3.9001883e-12 0
-9.9999993 4.8705839e-07 0
-9.9999993 4.8705412e-07 0
-9.9999993 4.870541e-07 0
-9.9999993 4.870541e-07 0
-9.9999993 4.870541e-07 0
-9.9999993 4.870541e-07 0
-9.9999993 4.870541e-07 0
-9.9999993 4.870541e-07 0
-9.9999993 4.870541e-07 0
-9.9999993 4.8705412e-07 0
-9.9999993 4.870605e-07 0
-9.9999993 -7.3008517e-07 0
-9.9999993 -0.00017597147 0
-9.999992 0.00017645852 0
-9.9999993 1.7042001e-06 0
-9.9999993 4.8704773e-07 0
-9.9999993 4.8705409e-07 0
-9.9999993 4.870541e-07 0
-9.9999993 4.870541e-07 0
-9.9999993 4.870541e-07 0
-9.9999993 4.870541e-07 0
-9.9999993 4.870541e-07 0
-9.9999993 4.870541e-07 0
-9.9999993 4.870541e-07 0
-9.9999993 4.8705417e-07 0
-9.9999993 4.8705478e-07 0
-9.9999993 4.8705449e-07 0
-9.9999993 4.8705449e-07 0
-9.9999993 4.8705449e-07 0
-9.9999993 4.8705449e-07 0
-9.9999993 4.8705449e-07 0
-9.9999993 4.8705449e-07 0
-9.9999991 4.8705449e-07 0
-9.9999991 4.8705449e-07 0
-9.9999991 4.870545e-07 0
-9.9999991 4.8706088e-07 0
-9.9999991 -7.3008479e-07 0
-9.9999991 -0.00017597147 0
-9.9999918 0.00017645852 0
-9.9999991 1.7041983e-06 0
-9.9999991 4.8704811e-07 0
-9.9999991 4.8705447e-07 0
-9.9999991 4.8705449e-07 0
-9.9999991 4.8705449e-07 0
-9.9999991 4.8705449e-07 0
-9.9999991 4.8705448e-07 0
-9.9999991 4.8705448e-07 0
-9.9999991 4.8705449e-07 0
-9.9999991 4.8705449e-07 0
-9.9999991 4.8705449e-07 0
-9.9999991 4.8705449e-07 0
-9.9999991 4.8705449e-07 0
-9.9999991 4.8705449e-07 0
-9.9999991 4.8705449e-07 0
-9.9999991 4.8705449e-07 0
-9.9999991 4.8705449e-07 0
-9.9999991 4.8705449e-07 0
-9.9999991 4.8705449e-07 0
-9.9999991 4.8705449e-07 0
-9.9999991 4.870545e-07 0
-9.9999991 4.8706088e-07 0
-9.9999991 -7.3008479e-07 0
-9.9999991 -0.00017597147 0
-9.9999931 0.00017645853 0
-10 1.7042002e-06 0
-10 4.870481e-07 0
-10 4.8705448e-07 0
-10 4.870545e-07 0
-10 4.870545e-07 0
-10 4.870545e-07 0
-10 4.870545e-07 0
-10 4.8705449e-07 0
-10 4.8705449e-07 0
-10 4.8705449e-07 0
-10 4.8705449e-07 0
-10 4.8705449e-07 0
-10 4.8705449e-07 0
-10 4.8705449e-07 0
-10 4.8705449e-07 0
-10 4.8705449e-07 0
-10 4.8705449e-07 0
-10 4.8705449e-07 0
-10 4.8705449e-07 0
-10 4.8705477e-07 0
-10 4.8705157e-07 0
-10 4.8705777e-07 0
-10 -7.3008665e-07 0
-10 -0.00017597148 0
-10.000159 0.0001667174 0
-10.000176 1.7042426e-06 0
-10.000176 4.8704824e-07 0
-10.000175 9.7411126e-07 0
-10.000175 9.7411117e-07 0
-10.000175 9.7411117e-07 0
-10.000175 9.7411117e-07 0
-10.000175 9.7411128e-07 0
-10.000176 4.8705439e-07 0
-10.000176 4.8705449e-07 0
-10.000176 4.8705449e-07 0
-10.000176 4.8705449e-07 0
-10.000176 4.8705449e-07 0
-10.000176 4.8705449e-07 0
-10.000176 4.8705449e-07 0
-10.000176 4.8705449e-07 0
-10.000176 4.8705449e-07 0
-10.000176 4.8705449e-07 0
-10.000176 4.8705449e-07 0
-10.000176 4.8705451e-07 0
-10.000176 4.8705878e-07 0
-10.000176 -3.9024165e-12 0
-10.000168 2.2454603e-12 0
-10.000168 -7.3012718e-07 0
-10.000158 -0.00016623035 0
9.9998358 0.00015938822 0
9.9998274 1.373207e-06 0
9.9998272 1.2156182e-07 0
9.9998272 1.5595114e-07 0
9.9998272 1.5595115e-07 0
9.9998272 1.5595115e-07 0
9.9998272 1.5595115e-07 0
9.9998272 1.5595115e-07 0
9.9998272 1.5595115e-07 0
9.9998272 1.5595115e-07 0
9.9998272 1.5595115e-07 0
9.9998272 1.5595115e-07 0
9.9998272 1.5595385e-07 0
9.9998272 1.559505e-07 0
9.9998272 1.559479e-07 0
9.9998272 1.6915419e-07 0
9.9998272 1.6915407e-07 0
9.9998272 1.6915407e-07 0
9.9998272 1.6915407e-07 0
9.9998272 1.6915407e-07 0
9.9998272 1.6915407e-07 0
9.9998272 1.6915409e-07 0
9.9998272 1.6916024e-07 0
9.9998272 -1.0480304e-06 0
9.9998362 -0.0001670455 0
9.9999511 0.0001754844 0
9.9999803 4.1394913e-06 0
9.999972 3.4093806e-06 0
9.999972 3.4093861e-06 0
9.999972 3.4093862e-06 0
9.999972 3.4093862e-06 0
9.999972 3.4093862e-06 0
9.999972 3.4093862e-06 0
9.999972 3.4093862e-06 0
9.999972 3.4093862e-06 0
9.999972 3.4093862e-06 0
9.999972 3.4093862e-06 0
9.999972 3.4093904e-06 0
9.9999803 2.922329e-06 0
9.9999715 2.9223323e-06 0
9.9999715 2.9223323e-06 0
9.9999715 2.9223323e-06 0
9.9999715 2.9223323e-06 0
9.9999715 2.9223323e-06 0
9.9999715 2.9223323e-06 0
9.9999715 2.9223323e-06 0
9.9999715 2.9223323e-06 0
9.9999715 2.9223387e-06 0
9.9999715 1.7051864e-06 0
9.999972 -0.00017298825 0
9.9999757 0.00017597146 0
9.9999903 2.6783143e-06 0
9.9999903 1.4611581e-06 0
9.9999903 1.461164e-06 0
9.9999903 1.4611641e-06 0
9.9999903 1.4611641e-06 0
9.9999903 1.4611641e-06 0
9.9999903 1.4611641e-06 0
9.9999903 1.4611641e-06 0
9.9999903 1.4611641e-06 0
9.9999903 1.4611641e-06 0
9.9999903 1.4611641e-06 0
9.9999903 1.4611616e-06 0
9.9999903 1.4611637e-06 0
9.9999903 1.461166e-06 0
9.9999903 1.4611637e-06 0
9.9999903 1.4611637e-06 0
9.9999903 1.4611637e-06 0
9.9999903 1.4611637e-06 0
9.9999903 1.4611637e-06 0
9.9999903 1.4611637e-06 0
9.9999903 1.4611637e-06 0
9.9999903 1.4611701e-06 0
9.9999903 2.4402415e-07 0
9.9999903 -0.00017499736 0
9.9999757 0.00017597146 0
9.9999903 2.6783151e-06 0
9.9999903 1.4611571e-06 0
9.9999903 1.4611634e-06 0
9.9999903 1.4611635e-06 0
9.9999903 1.4611635e-06 0
9.9999903 1.4611635e-06 0
9.9999903 1.4611635e-06 0
9.9999903 1.4611634e-06 0
9.9999903 1.4611633e-06 0
9.9999903 1.4611664e-06 0
9.9999903 1.4611658e-06 0
9.9999903 1.4611632e-06 0
9.9999903 1.4611631e-06 0
9.9999903 1.4611633e-06 0
9.9999903 1.4611633e-06 0
9.9999903 1.4611633e-06 0
9.9999903 1.4611633e-06 0
9.9999903 1.4611633e-06 0
9.9999903 1.4611633e-06 0
9.9999903 1.4611633e-06 0
9.9999903 1.4611634e-06 0
9.9999903 1.4611697e-06 0
9.9999903 2.4402409e-07 0
9.9999903 -0.00017499736 0
9.9999757 0.00017597146 0
9.9999903 2.6783165e-06 0
9.9999903 1.461157e-06 0
9.9999903 1.4611633e-06 0
9.9999903 1.4611633e-06 0
9.9999903 1.4611633e-06 0
9.9999904 1.4611634e-06 0
9.9999904 1.4611634e-06 0
9.9999904 1.4611633e-06 0
9.9999899 1.4611616e-06 0
9.9999894 1.948224e-06 0
9.9999988 9.7410499e-07 0
9.9999988 9.7410971e-07 0
9.9999988 9.7410802e-07 0
9.9999982 1.4611657e-06 0
9.9999982 1.461164e-06 0
9.9999982 1.461164e-06 0
9.9999982 1.4611627e-06 0
9.9999982 1.4611633e-06 0
9.9999983 1.4611644e-06 0
9.9999983 1.4611644e-06 0
9.9999983 1.4611644e-06 0
9.9999977 1.4611707e-06 0
9.9999977 7.3107989e-07 0
9.9999977 -0.0001745103 0
9.9999685 0.00017645852 0
9.9999977 3.1653699e-06 0
9.9999977 1.9482127e-06 0
9.9999977 1.9482191e-06 0
9.9999977 1.9482191e-06 0
9.9999977 1.9482191e-06 0