# vtk DataFile Version 4.0
hesp visualization file
ASCII
DATASET UNSTRUCTURED_GRID
POINTS 1250 double
29.476191 2.7687191 4
28.868121 1.7578207 4
31.06746 2.8914423 4
30.695761 4.5890506 4
30.940167 5.556866 4
30.941519 6.6739233 4
30.949059 7.7940535 4
30.938121 8.9213115 4
30.940449 10.044121 4
30.95516 11.15746 4
30.97638 12.266372 4
30.812834 13.466544 4
30.797294 14.608967 4
30.840672 15.673505 4
30.704734 16.883204 4
31.297162 17.250891 4
31.15875 18.492825 4
31.172765 19.619773 4
31.167784 20.744213 4
31.002559 21.727721 4
31.07812 22.890972 4
31.071789 24.00951 4
31.038178 25.104504 4
31.045268 26.227965 4
30.215271 27.554 4
32.543983 -0.67964161 4
31.263053 3.2268071 4
30.376392 2.9820783 4
30.116069 4.1879242 4
30.092002 5.3261229 4
30.087383 6.4544195 4
30.095169 7.5686675 4
30.094612 8.6929042 4
30.08247 9.8260438 4
30.064128 10.965929 4
30.19271 11.982855 4
30.24055 13.089844 4
30.26997 14.195477 4
30.186182 15.385864 4
30.228386 17.335971 4
29.990462 18.333157 4
29.978908 19.465246 4
29.971825 20.590849 4
30.151034 21.661901 4
30.230419 22.851018 4
30.238814 23.979082 4
30.270288 25.133719 4
30.179255 26.202957 4
29.763306 26.901508 4
31.956154 28.814195 4
30.137246 1.9975017 4
31.133482 0.73472706 4
32.348311 2.9446171 4
32.228947 3.731444 4
32.22815 4.8550811 4
32.228712 5.9764328 4
32.228247 7.0998731 4
32.228795 8.2211858 4
32.228562 9.3441364 4
32.228269 10.467266 4
32.227446 11.591451 4
32.234043 12.700343 4
32.233375 13.824156 4
32.236128 14.941141 4
32.235969 16.063908 4
32.267571 17.128702 4
32.26705 18.251867 4
32.271602 19.368503 4
32.271866 20.490625 4
32.217743 21.706543 4
32.217841 22.828751 4
32.217727 23.951511 4
32.214166 25.083717 4
32.26197 26.388551 4
31.610367 27.367148 4
33.648349 -1.4690827 4
31.386664 2.9846619 4
31.64232 4.3221371 4
31.12973 4.6541544 4
31.129502 5.7763376 4
31.129439 6.8987357 4
31.129487 8.0212692 4
31.129431 9.1436528 4
31.129454 10.266153 4
31.129478 11.388679 4
31.129561 12.511245 4
31.129211 13.633353 4
31.129262 14.755868 4
31.129163 15.87831 4
31.137279 16.920207 4
31.319012 18.043812 4
31.308162 19.166452 4
31.3154 20.292097 4
31.42518 21.470435 4
31.326448 22.488009 4
31.330982 23.612377 4
31.352103 24.745287 4
31.345098 25.85534 4
31.130393 27.018868 4
32.085573 29.693083 4
32.500575 1.6678445 4
33.456715 1.5702902 4
33.05851 2.4915914 4
32.866425 4.0201019 4
32.867573 5.1464431 4
32.866751 6.2685952 4
32.867472 7.3909682 4
32.866625 8.5135217 4
32.866985 9.6359308 4
32.867477 10.75801 4
32.868742 11.880415 4
32.858635 13.003757 4
32.859655 14.126078 4
32.855497 15.248782 4
32.855736 16.371284 4
32.825794 17.585061 4
32.82643 18.707219 4
32.820568 19.833311 4
32.820234 20.955941 4
32.891092 22.009617 4
32.891027 23.132195 4
32.891119 24.254525 4
32.895767 25.368516 4
32.905061 26.195207 4
33.439129 27.054754 4
32.480444 0.78608071 4
33.448486 3.1558205 4
34.030444 4.1209628 4
34.22349 4.9667245 4
34.224728 6.0881658 4
34.224463 7.2108457 4
34.224595 8.3331992 4
34.224436 9.4557918 4
34.2245 10.578202 4
34.224499 11.700664 4
34.22476 12.822912 4
34.222829 13.946988 4
34.223001 15.069299 4
34.222197 16.192458 4
34.222254 17.314871 4
34.239359 18.426179 4
34.239359 19.548642 4
34.239557 20.671072 4
34.239562 21.793531 4
34.234922 22.917701 4
34.234922 24.040163 4
34.234922 25.162624 4
34.234141 26.285525 4
34.173795 27.467711 4
32.46028 28.238117 4
33.951872 2.1470617 4
33.581118 2.0461368 4
34.313547 3.7753525 4
33.575193 4.4454629 4
33.575413 5.5673311 4
33.575357 6.6899814 4
33.575385 7.8123507 4
33.575352 8.9349241 4
33.575365 10.057342 4
33.575365 11.179804 4
33.57542 12.302082 4
33.575037 13.425832 4
33.575069 14.548182 4
33.574922 15.671141 4
33.574934 16.793566 4
33.58041 17.896723 4
33.58041 19.019198 4
33.580553 20.141222 4
33.580556 21.263673 4
33.577977 22.394206 4
33.577977 23.516664 4
33.577977 24.639125 4
33.577658 25.762611 4
33.668307 26.806898 4
33.678521 27.537048 4
35.806895 0.37327753 4
34.845079 2.7819966 4
34.710622 3.508204 4
34.705142 4.595585 4
34.705082 5.7175875 4
34.705083 6.8400495 4
34.705082 7.9625116 4
34.705083 9.0849736 4
34.705082 10.207436 4
34.705082 11.329898 4
34.705082 12.45236 4
34.705083 13.574821 4
34.705083 14.697286 4
34.705083 15.819745 4
34.705083 16.942205 4
34.705701 18.069227 4
34.705701 19.191689 4
34.705701 20.314151 4
34.705701 21.436613 4
34.705702 22.559073 4
34.705702 23.681536 4
34.705702 24.803997 4
34.705702 25.926454 4
34.710884 27.081044 4
35.480329 28.657865 4
34.89787 1.1144278 4
36.239521 1.8555606 4
35.849903 3.2465637 4
35.838737 4.3940445 4
35.838597 5.5168664 4
35.838597 6.6393285 4
35.838597 7.7617905 4
35.838597 8.8842526 4
35.838597 10.006715 4
35.838597 11.129177 4
35.838597 12.251639 4
35.838597 13.374101 4
35.838598 14.496561 4
35.838597 15.619025 4
35.838596 16.741489 4
35.839984 17.860445 4
35.839984 18.982908 4
35.839984 20.10537 4
35.839984 21.227832 4
35.839983 22.350294 4
35.839983 23.472756 4
35.839983 24.595219 4
35.839982 25.717684 4
35.850235 26.817598 4
35.012493 27.859694 4
36.024585 1.1236616 4
36.0241 2.247606 4
36.075756 3.3901353 4
36.092977 4.5119723 4
36.093185 5.6343965 4
36.093185 6.7568586 4
36.093185 7.8793206 4
36.093185 9.0017827 4
36.093185 10.124245 4
36.093185 11.246707 4
36.093185 12.369169 4
36.093186 13.491631 4
36.093185 14.614093 4
36.093186 15.736555 4
36.093187 16.859017 4
36.091111 17.981819 4
36.091111 19.104281 4
36.091111 20.226743 4
36.091111 21.349205 4
36.091112 22.471667 4
36.091112 23.594129 4
36.091112 24.716591 4
36.091114 25.839053 4
36.075153 26.961754 4
36.024603 28.060361 4
37.147082 1.1236566 4
37.147081 2.2449306 4
37.147082 3.367386 4
37.147082 4.4898482 4
37.147082 5.6123102 4
37.147082 6.7347723 4
37.147082 7.8572343 4
37.147082 8.9796964 4
37.147082 10.102158 4
37.147082 11.22462 4
37.147082 12.347083 4
37.147082 13.469545 4
37.147082 14.592007 4
37.147082 15.714469 4
37.147082 16.836931 4
37.147082 17.959393 4
37.147082 19.081855 4
37.147082 20.204317 4
37.147082 21.326779 4
37.147082 22.449241 4
37.147082 23.571703 4
37.147082 24.694165 4
37.147082 25.816627 4
37.147082 26.939082 4
37.147082 28.060357 4
38.269545 1.1236563 4
38.269545 2.244931 4
38.269545 3.3673861 4
38.269545 4.4898482 4
38.269545 5.6123102 4
38.269545 6.7347723 4
38.269545 7.8572343 4
38.269545 8.9796964 4
38.269545 10.102158 4
38.269545 11.22462 4
38.269545 12.347083 4
38.269545 13.469545 4
38.269545 14.592007 4
38.269545 15.714469 4
38.269545 16.836931 4
38.269545 17.959393 4
38.269545 19.081855 4
38.269545 20.204317 4
38.269545 21.326779 4
38.269545 22.449241 4
38.269545 23.571703 4
38.269545 24.694165 4
38.269545 25.816627 4
38.269545 26.939082 4
38.269545 28.060357 4
39.392007 1.1236563 4
39.392007 2.244931 4
39.392007 3.3673861 4
39.392007 4.4898482 4
39.392007 5.6123102 4
39.392007 6.7347723 4
39.392007 7.8572343 4
39.392007 8.9796964 4
39.392007 10.102158 4
39.392007 11.22462 4
39.392007 12.347083 4
39.392007 13.469545 4
39.392007 14.592007 4
39.392007 15.714469 4
39.392007 16.836931 4
39.392007 17.959393 4
39.392007 19.081855 4
39.392007 20.204317 4
39.392007 21.326779 4
39.392007 22.449241 4
39.392007 23.571703 4
39.392007 24.694165 4
39.392007 25.816627 4
39.392007 26.939082 4
39.392007 28.060357 4
40.514469 1.1236563 4
40.514469 2.244931 4
40.514469 3.3673861 4
40.514469 4.4898482 4
40.514469 5.6123102 4
40.514469 6.7347723 4
40.514469 7.8572343 4
40.514469 8.9796964 4
40.514469 10.102158 4
40.514469 11.22462 4
40.514469 12.347083 4
40.514469 13.469545 4
40.514469 14.592007 4
40.514469 15.714469 4
40.514469 16.836931 4
40.514469 17.959393 4
40.514469 19.081855 4
40.514469 20.204317 4
40.514469 21.326779 4
40.514469 22.449241 4
40.514469 23.571703 4
40.514469 24.694165 4
40.514469 25.816627 4
40.514469 26.939082 4
40.514469 28.060357 4
41.636931 1.1236563 4
41.636931 2.244931 4
41.636931 3.3673861 4
41.636931 4.4898482 4
41.636931 5.6123102 4
41.636931 6.7347723 4
41.636931 7.8572343 4
41.636931 8.9796964 4
41.636931 10.102158 4
41.636931 11.22462 4
41.636931 12.347083 4
41.636931 13.469545 4
41.636931 14.592007 4
41.636931 15.714469 4
41.636931 16.836931 4
41.636931 17.959393 4
41.636931 19.081855 4
41.636931 20.204317 4
41.636931 21.326779 4
41.636931 22.449241 4
41.636931 23.571703 4
41.636931 24.694165 4
41.636931 25.816627 4
41.636931 26.939082 4
41.636931 28.060357 4
42.759393 1.1236563 4
42.759393 2.244931 4
42.759393 3.3673861 4
42.759393 4.4898482 4
42.759393 5.6123102 4
42.759393 6.7347723 4
42.759393 7.8572343 4
42.759393 8.9796964 4
42.759393 10.102158 4
42.759393 11.22462 4
42.759393 12.347083 4
42.759393 13.469545 4
42.759393 14.592007 4
42.759393 15.714469 4
42.759393 16.836931 4
42.759393 17.959393 4
42.759393 19.081855 4
42.759393 20.204317 4
42.759393 21.326779 4
42.759393 22.449241 4
42.759393 23.571703 4
42.759393 24.694165 4
42.759393 25.816627 4
42.759393 26.939082 4
42.759393 28.060357 4
43.881855 1.1236563 4
43.881855 2.244931 4
43.881855 3.3673861 4
43.881855 4.4898482 4
43.881855 5.6123102 4
43.881855 6.7347723 4
43.881855 7.8572343 4
43.881855 8.9796964 4
43.881855 10.102158 4
43.881855 11.22462 4
43.881855 12.347083 4
43.881855 13.469545 4
43.881855 14.592007 4
43.881855 15.714469 4
43.881855 16.836931 4
43.881855 17.959393 4
43.881855 19.081855 4
43.881855 20.204317 4
43.881855 21.326779 4
43.881855 22.449241 4
43.881855 23.571703 4
43.881855 24.694165 4
43.881855 25.816627 4
43.881855 26.939082 4
43.881855 28.060357 4
45.004317 1.1236563 4
45.004317 2.244931 4
45.004317 3.3673861 4
45.004317 4.4898482 4
45.004317 5.6123102 4
45.004317 6.7347723 4
45.004317 7.8572343 4
45.004317 8.9796964 4
45.004317 10.102158 4
45.004317 11.22462 4
45.004317 12.347083 4
45.004317 13.469545 4
45.004317 14.592007 4
45.004317 15.714469 4
45.004317 16.836931 4
45.004317 17.959393 4
45.004317 19.081855 4
45.004317 20.204317 4
45.004317 21.326779 4
45.004317 22.449241 4
45.004317 23.571703 4
45.004317 24.694165 4
45.004317 25.816627 4
45.004317 26.939082 4
45.004317 28.060357 4
46.126781 1.1236563 4
46.12678 2.244931 4
[...]
POINT_DATA 1250
SCALARS m double
LOOKUP_TABLE default
1
1
1
1
1
1
1
1
1
1
1
1
1
1
1
1
1
1
1
1
1
1
1
1
1
1
1
1
1
1
1
1
1
1
1
1
1
1
1
1
1
1
1
1
1
1
1
1
1
1
1
1
1
1
1
1
1
1
1
1
1
1
1
1
1
1
1
1
1
1
1
1
1
1
1
1
1
1
1
1
1
1
1
1
1
1
1
1
1
1
1
1
1
1
1
1
1
1
1
1
1
1
1
1
1
1
1
1
1
1
1
1
1
1
1
1
1
1
1
1
1
1
1
1
1
1
1
1
1
1
1
1
1
1
1
1
1
1
1
1
1
1
1
1
1
1
1
1
1
1
1
1
1
1
1
1
1
1
1
1
1
1
1
1
1
1
1
1
1
1
1
1
1
1
1
1
1
1
1
1
1
1
1
1
1
1
1
1
1
1
1
1
1
1
1
1
1
1
1
1
1
1
1
1
1
1
1
1
1
1
1
1
1
1
1
1
1
1
1
1
1
1
1
1
1
1
1
1
1
1
1
1
1
1
1
1
1
1
1
1
1
1
1
1
1
1
1
1
1
1
1
1
1
1
1
1
1
1
1
1
1
1
1
1
1
1
1
1
1
1
1
1
1
1
1
1
1
1
1
1
1
1
1
1
1
1
1
1
1
1
1
1
1
1
1
1
1
1
1
1
1
1
1
1
1
1
1
1
1
1
1
1
1
1
1
1
1
1
1
1
1
1
1
1
1
1
1
1
1
1
1
1
1
1
1
1
1
1
1
1
1
1
1
1
1
1
1
1
1
1
1
1
1
1
1
1
1
1
1
1
1
1
1
1
1
1
1
1
1
1
1
1
1
1
1
1
1
1
1
1
1
1
1
1
1
1
1
1
1
1
1
1
1
1
1
1
1
1
1
1
1
1
1
1
1
1
1
1
1
1
1
1
1
1
1
1
1
1
1
1
1
1
1
1
1
1
1
1
1
1
1
1
1
1
1
1
1
1
1
1
1
1
1
1
1
1
1
1
1
1
1
1
1
1
1
1
1
1
1
1
1
1
1
1
1
1
1
1
1
1
1
1
1
1
1
1
1
1
1
1
1
1
1
1
1
1
1
1
1
1
1
1
1
1
1
1
1
1
1
1
1
1
1
1
1
1
1
1
1
1
1
1
1
1
1
1
1
1
1
1
1
1
1
1
1
1
1
1
1
1
1
1
1
1
1
1
1
1
1
1
1
1
1
1
1
1
1
1
1
1
1
1
1
1
1
1
1
1
1
1
1
1
1
1
1
1
1
1
1
1
1
1
1
1
1
1
1
1
1
1
1
1
1
1
1
1
1
1
1
1
1
1
1
1
1
1
1
1
1
1
1
1
1
1
1
1
1
1
1
1
1
1
1
1
1
1
1
1
1
1
1
1
1
1
1
1
1
1
1
1
1
1
1
1
1
1
1
1
1
1
1
1
1
1
1
1
1
1
1
1
1
1
1
1
1
1
1
1
1
1
1
1
1
1
1
1
1
1
1
1
1
1
1
1
1
1
1
1
1
1
1
1
1
1
1
1
1
1
1
1
1
1
1
1
1
1
1
1
1
1
1
1
1
1
1
1
1
1
1
1
1
1
1
1
1
1
1
1
1
1
1
1
1
1
1
1
1
1
1
1
1
1
1
1
1
1
1
1
1
1
1
1
1
1
1
1
1
1
1
1
1
1
1
1
1
1
1
1
1
1
1
1
1
1
1
1
1
1
1
1
1
1
1
1
1
1
1
1
1
1
1
1
1
1
1
1
1
1
1
1
1
1
1
1
1
1
1
1
1
1
1
1
1
1
1
1
1
1
1
1
1
1
1
1
1
1
1
1
1
1
1
1
1
1
1
1
1
1
1
1
1
1
1
1
1
1
1
1
1
1
1
1
1
1
1
1
1
1
1
1
1
1
1
1
1
1
1
1
1
1
1
1
1
1
1
1
1
1
1
1
1
1
1
1
1
1
1
1
1
1
1
1
1
1
1
1
1
1
1
1
1
1
1
1
1
1
1
1
1
1
1
1
1
1
1
1
1
1
1
1
1
1
1
1
1
1
1
1
1
1
1
1
1
1
1
1
1
1
1
1
1
1
1
1
1
1
1
1
1
1
1
1
1
1
1
1
1
1
1
1
1
1
1
1
1
1
1
1
1
1
1
1
1
1
1
1
1
1
1
1
1
1
1
1
1
1
1
1
1
1
1
1
1
1
1
1
1
1
1
1
1
1
1
1
1
1
1
1
1
1
1
1
1
1
1
1
1
1
1
1
1
1
1
1
1
1
1
1
1
1
1
1
1
1
1
1
1
1
1
1
1
1
1
1
1
1
1
1
1
1
1
1
1
1
1
1
1
1
1
1
1
1
1
1
1
1
1
1
1
1
1
1
1
1
1
1
1
1
1
1
1
1
1
1
1
1
1
1
1
1
1
1
1
1
1
1
1
1
1
1
1
1
1
1
1
1
1
1
1
1
1
1
1
1
1
1
1
1
1
1
1
1
1
1
1
1
1
1
1
1
1
1
1
1
1
1
1
1
1
1
1
1
1
1
1
1
1
1
1
1
1
1
1
1
1
1
1
1
1
1
1
1
1
1
1
1
1
1
1
1
1
1
1
1
1
1
1
1
1
1
1
1
1
1
1
1
1
1
1
1
1
1
1
1
1
1
1
1
1
1
1
1
1
1
1
1
1
1
1
1
1
1
1
1
1
1
1
1
1
1
1
1
1
1
1
1
1
1
1
1
1
1
1
1
1
1
1
1
1
1
1
1
1
1
1
1
1
1
1
1
1
1
1
1
1
1
1
1
1
1
VECTORS v double
-7.5505062 0.4234724 0
2.0524876 8.9677437 0
-8.0992011 -0.68461432 0
1.6863079 8.6355184 0
4.9739898 6.6121185 0
5.0272803 6.5803818 0
5.0976327 6.5099829 0
4.9830919 6.6179319 0
4.998496 6.6000029 0
5.1761819 6.4433278 0
5.424711 6.2332177 0
3.4118268 7.5750842 0
3.5712991 7.6000668 0
6.1987756 5.5846233 0
2.0971047 8.145033 0
7.8675525 2.3808424 0
-1.7010575 8.2690177 0
-1.0117757 8.3460569 0
-1.3353044 8.3525513 0
-8.9054967 3.560801 0
-4.4697047 6.9118902 0
-4.7778864 6.7756388 0
-6.3508985 5.8477643 0
-5.9291129 6.0761206 0
-6.4952336 0.66979384 0
8.8418758 -9.0868625 0
-6.9653915 1.3547223 0
6.2172616 -8.4011171 0
-5.2220312 -10.637988 0
-7.1356883 -9.0270057 0
-7.1945167 -8.9611299 0
-7.0781705 -9.068324 0
-7.1014738 -9.0419179 0
-7.2471489 -8.9164725 0
-7.4825597 -8.7042055 0
-5.7327622 -10.041388 0
-4.991273 -10.354757 0
-4.9836725 -10.380346 0
-8.1072974 -8.1864764 0
4.6285064 -7.6761369 0
-4.2517667 -8.5888745 0
-4.8858368 -8.2131967 0
-5.2397996 -8.0013448 0
3.6785661 -9.2037017 0
6.7836357 -7.2123347 0
7.1746604 -6.8650514 0
8.6131054 -5.1276124 0
4.3357326 -8.6450709 0
-13.441719 -0.68462212 0
1.3132809 1.2040158 0
-9.343097 3.9812549 0
-2.5532764 -9.8798496 0
-5.671654 0.82568245 0
-7.4937653 -9.0857252 0
-7.4922357 -9.0919712 0
-7.4799763 -9.11268 0
-7.4915763 -9.0910755 0
-7.4779797 -9.1163477 0
-7.483816 -9.1054815 0
-7.4927574 -9.0880483 0
-7.5126746 -9.0509082 0
-7.3478871 -9.3500058 0
-7.3651324 -9.319469 0
-7.2953275 -9.4409173 0
-7.2991202 -9.4345187 0
-6.0265793 -11.440647 0
-6.0422645 -11.423179 0
-5.8994192 -11.576916 0
-5.8912431 -11.58573 0
-7.6058485 -9.0650075 0
-7.6028781 -9.0714121 0
-7.6061626 -9.0637991 0
-7.7261471 -8.7899852 0
-7.4025168 -2.2337388 0
10.007205 0.62285097 0
3.9468132 -13.879532 0
7.8330714 5.0173739 0
-2.1069012 12.927201 0
-10.006317 1.0155143 0
-9.92868 1.1097782 0
-9.9511688 1.0859116 0
-9.9330779 1.1118758 0
-9.9525331 1.0823298 0
-9.9416475 1.0958334 0
-9.9306277 1.1202335 0
-9.9293627 1.1418179 0
-10.043932 0.99317525 0
-10.042118 0.99852428 0
-10.040292 0.98872793 0
-9.4665946 -6.807458 0
0.64330129 -11.222762 0
-0.024385943 -11.269825 0
0.32251376 -11.220037 0
7.4876311 -7.0332529 0
2.7805225 -11.14508 0
3.0763954 -11.021315 0
4.5600411 -10.2146 0
4.1271263 -10.547098 0
-10.102064 -3.4015965 0
0.47120592 14.495454 0
-6.6252573 -2.3429837 0
1.6239023 -5.1181223 0
9.5192212 -11.277275 0
7.9411635 -0.96537055 0
7.945192 -0.91779001 0
7.9329095 -0.90688333 0
7.945516 -0.92227512 0
7.93076 -0.90439824 0
7.9371169 -0.9122282 0
7.9473065 -0.9279436 0
7.9687835 -0.953374 0
7.7902659 -0.74452494 0
7.8090359 -0.76629691 0
7.7335866 -0.68301696 0
7.7375815 -0.68687468 0
6.2231883 1.0779199 0
6.2406741 1.0658496 0
6.080424 1.1863954 0
6.0714111 1.1923926 0
8.0256625 -0.8890843 0
8.0225787 -0.88543933 0
8.02642 -0.88970107 0
8.1688244 -1.120991 0
8.530302 -8.5031023 0
-6.8914449 3.3504824 0
-9.8418907 -2.03631 0
-9.6697793 -0.82718662 0
2.8975476 13.772575 0
8.3939569 4.9251912 0
8.4021935 4.9292251 0
8.4003617 4.9288375 0
8.4012744 4.9290236 0
8.4001753 4.9287994 0
8.4006154 4.9288863 0
8.400614 4.9288892 0
8.4024178 4.9292658 0
8.3887957 4.9277439 0
8.390061 4.9277271 0
8.3841886 4.9279016 0
8.3845215 4.9281911 0
8.4795807 5.0554839 0
8.4795816 5.0555577 0
8.479644 5.0613403 0
8.479677 5.0613825 0
8.4683277 4.9659211 0
8.4683256 4.9659053 0
8.4683273 4.9659145 0
8.4644547 4.9564637 0
8.2175709 4.8198903 0
-9.9560874 1.1657506 0
-6.417243 8.3145746 0
-10.359425 -1.5766843 0
10.147618 7.3905218 0
-9.9768218 -0.44888201 0
-9.9791222 -0.45696933 0
-9.9804873 -0.45223631 0
-9.9798158 -0.45455956 0
-9.9806215 -0.45177315 0
-9.9802998 -0.45288767 0
-9.9803017 -0.4528847 0
-9.9789681 -0.45749116 0
-9.9882888 -0.42525849 0
-9.9874773 -0.42808476 0
-9.9910761 -0.415635 0
-9.9907519 -0.41660488 0
-9.8619789 -0.86614507 0
-9.8621072 -0.86555285 0
-9.8587643 -0.8762878 0
-9.8587182 -0.87651908 0
-9.9191068 -0.67804153 0
-9.9190804 -0.67820445 0
-9.9190769 -0.67823195 0
-9.9268919 -0.65275666 0
2.4692593 -11.293029 0
-9.2689335 -4.4921739 0
7.9372451 -6.5533704 0
-8.0105194 6.8648016 0
-9.7774673 2.3932868 0
-9.8714689 1.7950823 0
-9.8723399 1.7875722 0
-9.872326 1.7875702 0
-9.8723317 1.7875734 0
-9.8723249 1.7875696 0
-9.8723277 1.7875712 0
-9.8723277 1.7875712 0
-9.8723386 1.7875776 0
-9.8722571 1.7875248 0
-9.8722599 1.7875664 0
-9.8722318 1.7875064 0
-9.8722409 1.7874693 0
-9.8614452 1.8652753 0
-9.8614404 1.8652604 0
-9.8614488 1.8652658 0
-9.8614485 1.8652648 0
-9.8612417 1.8651294 0
-9.8612421 1.8651322 0
-9.8612436 1.865124 0
-9.8612227 1.8649935 0
-9.7627348 2.4098741 0
6.2739257 8.82526 0
-10.059562 -0.15991219 0
9.0692074 -5.7060904 0
-5.1724284 -9.0042133 0
-7.3119896 -7.3063592 0
-7.3356787 -7.2800298 0
-7.3356807 -7.2800276 0
-7.3356809 -7.2800273 0
-7.3356806 -7.2800277 0
-7.3356807 -7.2800276 0
-7.3356806 -7.2800277 0
-7.3356796 -7.2800288 0
-7.3356977 -7.2800091 0
-7.3355859 -7.280134 0
-7.3357082 -7.2799976 0
-7.3358158 -7.2798757 0
-7.0979612 -7.5351632 0
-7.0979667 -7.5351548 0
-7.0979667 -7.5351547 0
-7.0979671 -7.5351544 0
-7.0980032 -7.5351191 0
-7.0980038 -7.5351185 0
-7.0980295 -7.5350919 0
-7.0982795 -7.534822 0
-5.0942266 -9.0435814 0
-7.4508791 -4.7035811 0
-10.001466 0.0049495595 0
-9.9677345 0.16524564 0
4.9262906 7.0581795 0
7.1748029 5.8452343 0
7.1997315 5.8252829 0
7.1997344 5.8252814 0
7.1997346 5.8252812 0
7.1997343 5.8252815 0
7.1997344 5.8252814 0
7.1997343 5.8252815 0
7.1997332 5.8252823 0
7.1997527 5.8252674 0
7.1996351 5.825362 0
7.1997639 5.8252587 0
7.1998758 5.8251717 0
6.9497617 6.0175632 0
6.9497662 6.0175595 0
6.9497662 6.0175595 0
6.9497668 6.0175592 0
6.9498062 6.0175329 0
6.949807 6.0175324 0
6.949834 6.0175126 0
6.950089 6.0173463 0
4.8442911 7.082456 0
-10.001164 -0.0040941934 0
-10.000063 0.0046285247 0
-10.000186 -3.00859e-05 0
-10.000055 -3.884001e-06 0
-10.000056 -5.2027817e-08 0
-10.000057 -3.7331996e-07 0
-10.000057 -4.0409839e-07 0
-10.000057 -4.0411756e-07 0
-10.000057 -4.0411766e-07 0
-10.000057 -4.0411763e-07 0
-10.000057 -4.0411767e-07 0
-10.000057 -4.0411793e-07 0
-10.000057 -4.0411014e-07 0
-10.000057 -4.04148e-07 0
-10.000057 -4.0410159e-07 0
-10.000057 -3.9890172e-07 0
-10.000056 -4.6411576e-07 0
-10.000056 -4.3165322e-07 0
-10.000056 -4.3146068e-07 0
-10.000056 -4.3146002e-07 0
-10.000056 -4.3145025e-07 0
-10.000056 -4.3145703e-07 0
-10.000056 -3.9406759e-07 0
-10.000056 -2.9363122e-07 0
-10.000048 -2.61698e-05 0
-10.000011 -0.0046013943 0
-10.000001 0.0045987757 0
-10.000001 2.1007228e-05 0
-10 -6.392495e-08 0
-10 -4.2595271e-09 0
-10 -5.8683275e-09 0
-10 -5.8912394e-09 0
-10 -5.8912419e-09 0
-10 -5.8912436e-09 0
-10 -5.8912383e-09 0
-10 -5.8912453e-09 0
-10 -5.891225e-09 0
-10 -5.8913067e-09 0
-10 -5.8914137e-09 0
-10 -5.8910659e-09 0
-10 -6.1135413e-09 0
-10 -6.3860092e-09 0
-10 -6.1619628e-09 0
-10 -6.1631745e-09 0
-10 -6.1665983e-09 0
-10 -6.1618178e-09 0
-10 -6.1588143e-09 0
-10 -5.993818e-09 0
-10 8.4642314e-08 0
-10 -2.1242483e-05 0
-9.9999997 -0.0045985341 0
-9.9999996 0.0045984866 0
-9.9999996 2.1185839e-05 0
-9.9999996 -1.0524265e-07 0
-9.9999996 -1.595375e-10 0
-9.9999996 1.3800516e-11 0
-9.9999996 -1.1109062e-14 0
-9.9999996 -7.1456252e-16 0
-9.9999996 -1.3623291e-15 0
-9.9999996 -3.4626308e-12 0
-9.9999996 -3.4682753e-12 0
-9.9999996 2.1415735e-15 0
-9.9999996 4.1422175e-15 0
-9.9999996 1.3160838e-12 0
-9.9999996 1.3185087e-12 0
-9.9999996 -6.0144186e-16 0
-9.9999996 3.5230362e-14 0
-9.9999996 -9.7646023e-12 0
-9.9999996 -9.7831273e-12 0
-9.9999996 -1.4636722e-11 0
-9.9999995 -1.4635935e-11 0
-9.9999997 -4.2459449e-13 0
-9.9999997 1.6908378e-10 0
-9.9999997 1.0522825e-07 0
-9.9999997 -2.118585e-05 0
-9.9999997 -0.0045984865 0
-9.9999997 0.0045984865 0
-9.9999997 2.1185855e-05 0
-9.9999996 -1.0522354e-07 0
-9.9999996 -1.6909734e-10 0
-9.9999996 4.2262283e-13 0
-9.9999996 1.1489251e-16 0
-9.9999996 3.2546327e-15 0
-9.9999996 3.2897197e-15 0
-9.9999996 4.9039394e-15 0
-9.9999995 -4.1189038e-16 0
-9.9999995 -5.6562628e-12 0
-9.9999995 -5.6528899e-12 0
-9.9999995 6.8412896e-14 0
-9.9999995 6.8331374e-14 0
-9.9999995 1.3401924e-16 0
-9.9999995 2.9915465e-15 0
-9.9999995 3.3751166e-16 0
-9.9999995 -5.8302969e-14 0
-9.9999995 3.4078639e-12 0
-9.9999993 -9.2379815e-12 0
-9.9999993 -1.3141745e-11 0
-9.9999993 1.6908831e-10 0
-9.9999993 1.0522825e-07 0
-9.9999993 -2.118585e-05 0
-9.9999993 -0.0045984865 0
-9.9999993 0.0045984865 0
-9.9999993 2.1185861e-05 0
-9.9999993 -1.0521375e-07 0
-9.9999993 -1.7052555e-10 0
-9.9999993 -4.8270379e-12 0
-9.9999993 4.2824068e-15 0
-9.9999993 -6.7803118e-12 0
-9.9999993 -1.1077911e-11 0
-9.9999993 -6.9324153e-13 0
-9.9999993 3.5957467e-12 0
-9.9999993 2.1550393e-16 0
-9.9999993 -3.4084909e-12 0
-9.9999993 -3.4132372e-12 0
-9.9999993 8.9704711e-15 0
-9.9999993 1.6835605e-14 0
-9.9999993 -6.748616e-13 0
-9.9999993 2.3186723e-12 0
-9.9999993 2.9996985e-12 0
-9.9999992 1.4639297e-11 0
-9.9999992 1.4643884e-11 0
-9.9999991 -4.4067184e-13 0
-9.9999991 1.6908397e-10 0
-9.9999991 1.0522826e-07 0
-9.9999991 -2.1185863e-05 0
-9.9999991 -0.0045984866 0
-9.9999991 0.0045984865 0
-9.9999991 2.1185845e-05 0
-9.9999991 -1.0523298e-07 0
-9.9999991 -1.7019495e-10 0
-9.999999 -8.3751714e-13 0
-9.999999 -1.5634983e-13 0
-9.999999 2.9207552e-15 0
-9.999999 -1.2225902e-15 0
-9.9999989 2.0316197e-15 0
-9.9999988 -5.5084019e-15 0
-9.9999988 5.656241e-12 0
-9.9999988 5.1481007e-12 0
-9.9999988 -5.4109455e-13 0
-9.9999988 -1.0652604e-11 0
-9.9999988 -2.2414921e-11 0
-9.9999988 8.5297803e-12 0
-9.9999987 2.044496e-11 0
-9.9999987 1.9454179e-13 0
-9.9999987 2.0101909e-13 0
-9.9999987 8.1224137e-12 0
-9.9999987 7.6947859e-12 0
-9.9999987 1.6923447e-10 0
-9.9999987 1.052284e-07 0
-9.9999987 -2.118585e-05 0
-9.9999985 -0.0045984865 0
-9.9999985 0.0045984865 0
-9.9999985 2.118585e-05 0
-9.9999985 -1.0523011e-07 0
-9.9999985 -1.6568382e-10 0
-9.9999985 5.8466284e-12 0
-9.9999984 -6.3338817e-12 0
-9.9999984 4.4980993e-13 0
-9.9999984 1.1229024e-11 0
-9.9999984 4.3156794e-12 0
-9.9999984 1.3998007e-14 0
-9.9999984 1.4785919e-13 0
-9.9999984 4.7682461e-12 0
-9.9999983 4.777405e-12 0
-9.9999982 1.5246819e-13 0
-9.9999982 -1.0690902e-11 0
-9.9999981 -1.716909e-11 0
-9.9999984 4.0668044e-11 0
-9.9999984 3.263597e-11 0
-9.9999984 2.5207084e-11 0
-9.9999984 1.3505949e-11 0
-9.9999984 7.4950134e-12 0
-9.9999984 1.8871991e-10 0
-9.9999984 1.0526459e-07 0
-9.9999984 -2.11858e-05 0
-9.9999984 -0.0045984865 0
-9.9999984 0.0045984865 0
-9.9999984 2.1186014e-05 0
-9.9999984 -1.0520217e-07 0
-9.9999984 -1.4181371e-10 0
-9.9999984 2.7828919e-11 0
-9.9999984 2.4517706e-11 0
-9.9999983 2.1690762e-11 0
-9.9999983 2.1687266e-11 0
-9.9999983 2.4443194e-11 0
-9.9999983 2.4436513e-11 0
-9.9999983 2.4440324e-11 0
-9.9999983 2.50386e-11 0
-9.9999984 1.3048687e-11 0
-9.9999984 3.5984092e-11 0
-9.9999984 6.0652252e-11 0
-9.9999978 -4.4773322e-10 0
-9.9999978 4.8750197e-07 0
-9.9999978 4.8729063e-07 0
-9.9999978 4.8728964e-07 0
-9.9999978 4.8728925e-07 0
-9.9999977 4.8728553e-07 0
-9.9999976 4.8745509e-07 0
-9.9999976 5.9248352e-07 0
-9.9999974 -2.0698511e-05 0
-9.9999974 -0.0045979982 0
-9.9999901 0.004598486 0
-9.9999973 2.1676341e-05 0
-9.9999973 3.8211756e-07 0
-9.9999973 4.8717297e-07 0
-9.9999973 4.8748506e-07 0
-9.9999973 4.87052e-07 0
-9.9999973 4.8707356e-07 0
-9.9999973 4.8706288e-07 0
-9.9999973 4.8706288e-07 0
-9.9999973 4.8706698e-07 0
-9.9999973 4.8708021e-07 0
-9.9999973 4.8688431e-07 0
-9.9999973 4.872881e-07 0
-9.9999972 4.8732696e-07 0
-9.9999973 4.8733357e-07 0
-9.9999973 4.8441795e-07 0
-9.9999967 9.7678362e-07 0
-9.9999967 9.7389481e-07 0
-9.9999967 9.7389158e-07 0
-9.9999967 9.7389368e-07 0
-9.9999962 1.4609624e-06 0
-9.9999962 1.4611095e-06 0
-9.9999962 1.5655926e-06 0
-9.9999957 -1.9237392e-05 0
-9.9999957 -0.0045965358 0
-9.9999664 0.0045984825 0
-9.9999956 2.3142092e-05 0
-9.9999956 1.8426955e-06 0
-9.9999956 1.9477383e-06 0
-9.9999957 1.9509747e-06 0
-9.9999957 1.4583096e-06 0
-9.9999957 1.4613791e-06 0
-9.9999957 1.4613936e-06 0
-9.9999957 1.4613909e-06 0
-9.9999957 1.4613943e-06 0
-9.9999957 1.4613833e-06 0
-9.9999957 1.4576321e-06 0
-9.9999952 1.9516834e-06 0
-9.9999951 1.9489929e-06 0
-9.9999951 1.948971e-06 0
-9.9999951 1.949022e-06 0
-9.9999951 1.9494343e-06 0
-9.999995 1.9492412e-06 0
-9.999995 1.9492422e-06 0
-9.999995 1.9492368e-06 0
-9.9999949 1.9492423e-06 0
-9.9999948 1.9494187e-06 0
-9.9999948 2.0543539e-06 0
-9.9999947 -1.9236352e-05 0
-9.9999947 -0.004596533 0
-9.9999656 0.0045984817 0
-9.9999946 2.3149779e-05 0
-9.9999946 1.844263e-06 0
-9.9999946 1.9492878e-06 0
-9.9999946 1.9495096e-06 0
-9.9999946 1.9490749e-06 0
-9.9999945 1.9492191e-06 0
-9.9999945 1.9491973e-06 0
-9.9999944 1.9492317e-06 0
-9.9999944 1.94924e-06 0
-9.9999944 1.9491817e-06 0
-9.9999944 1.9373805e-06 0
-9.9999878 6.8299726e-06 0
-9.9999878 6.8179446e-06 0
-9.9999878 6.8178856e-06 0
-9.9999878 6.8179244e-06 0
-9.9999878 6.8179336e-06 0
-9.9999877 6.8179293e-06 0
-9.9999878 6.8173144e-06 0
-9.9999877 6.8186274e-06 0
-9.9999876 6.8187269e-06 0
-9.9999876 6.8188916e-06 0
-9.9999876 6.9220466e-06 0
-9.999987 -1.3878422e-05 0
-9.999987 -0.0045911732 0
-9.9998774 0.0045984672 0
-9.9999869 2.8529231e-05 0
-9.9999864 7.2002886e-06 0
-9.9999863 7.79215e-06 0
-9.9999857 8.2796242e-06 0
-9.9999857 8.2796835e-06 0
-9.9999857 8.2797e-06 0
-9.9999858 8.2794565e-06 0
-9.9999852 8.7669614e-06 0
-9.9999852 8.7666965e-06 0
-9.9999852 8.7666931e-06 0
-9.9999851 8.7669666e-06 0
-9.9999852 8.7686522e-06 0
-9.9999852 8.7678181e-06 0
-9.9999852 8.7674571e-06 0
-9.9999847 9.2552093e-06 0
-9.9999846 9.2549915e-06 0
-9.9999846 9.2549637e-06 0
-9.9999846 9.2458199e-06 0
-9.9999815 1.2184856e-05 0
-9.9999815 1.2175691e-05 0
-9.999981 1.2175754e-05 0
-9.999981 1.2768033e-05 0
-9.999981 -8.5227806e-06 0
-9.9999804 -0.0045853205 0
-9.9997831 0.0045984594 0
-9.9999802 3.4387915e-05 0
-9.9999798 1.3044482e-05 0
-9.9999798 1.3637013e-05 0
-9.9999798 1.3635049e-05 0
-9.9999793 1.41255e-05 0
-9.9999792 1.4123849e-05 0
-9.9999792 1.4123977e-05 0
-9.9999792 1.4123826e-05 0
-9.9999792 1.4124384e-05 0
-9.9999786 1.4124208e-05 0
-9.9999786 1.4611647e-05 0
-9.9999786 1.461142e-05 0
-9.9999786 1.4611238e-05 0
-9.9999786 1.4609689e-05 0
-9.999978 1.5100275e-05 0
-9.999978 1.5098469e-05 0
-9.9999774 1.5098366e-05 0
-9.9999774 1.5585406e-05 0
-9.9999774 1.5586633e-05 0
-9.9999773 1.5585745e-05 0
-9.9999773 1.5585954e-05 0
-9.9999773 1.5691593e-05 0
-9.9999773 -5.599359e-06 0
-9.9999773 -0.0045828819 0
-9.9997658 0.0045987359 0
-10.000003 3.3445839e-05 0
-10.000002 1.304792e-05 0
-10.000001 1.3639409e-05 0
-10.000001 1.3638514e-05 0
-10 1.4123544e-05 0
-9.9999997 1.510056e-05 0
-9.9999986 1.5588257e-05 0
-9.9999979 1.6070343e-05 0
-9.9999968 1.7050317e-05 0
-9.9999968 1.7533729e-05 0
-9.9999969 1.7533861e-05 0
-9.9999969 1.7533756e-05 0
-9.9999968 1.7531258e-05 0
-9.9999963 1.8023131e-05 0
-9.9999957 1.8020148e-05 0
-9.9999957 1.8508224e-05 0
-9.9999957 1.8507654e-05 0
-9.9999957 1.8507639e-05 0
-9.9999874 1.8507539e-05 0
-9.9999874 1.89947e-05 0
-9.999979 1.947998e-05 0
-9.9999791 1.9584733e-05 0
-9.9999791 -1.7377595e-06 0
-9.9999799 -0.0045792618 0
-10.004024 0.0043437421 0
-10.004556 4.156979e-05 0
-10.004556 1.9405132e-05 0
-10.004556 1.9998725e-05 0
-10.004555 2.0484778e-05 0
-10.004555 2.0484115e-05 0
-10.004555 2.0485264e-05 0
-10.004556 1.9996268e-05 0
-10.00457 2.0972483e-05 0
-10.00457 2.0972992e-05 0
-10.004569 2.0971599e-05 0
-10.004569 2.1461242e-05 0
-10.004569 2.1459336e-05 0
-10.004569 2.1948373e-05 0
-10.004569 2.1948043e-05 0
-10.004569 2.1947863e-05 0
-10.004568 2.1947599e-05 0
-10.004568 2.2436219e-05 0
-10.004568 2.2436145e-05 0
-10.004568 2.2435469e-05 0
-10.004567 2.3415908e-05 0
-10.004567 2.3411295e-05 0
-10.004559 2.3511541e-05 0
-10.004559 1.8934584e-06 0
-10.004304 -0.0043203814 0
9.3275602 -3.6372335 0
9.1530475 -6.8181531 0
-7.9017435 -4.5434611 0
-1.5056146 -8.6616134 0
-9.1863692 1.8057981 0
-9.0985978 0.41314426 0
-9.0475955 0.091920946 0
-9.0344943 1.1531803 0
-9.1426634 -0.71415937 0
-6.8289763 -5.4431048 0
-7.8870327 2.3993605 0
8.9462264 7.9087418 0
10.456519 -2.8467904 0
4.6998432 -8.3090315 0
-7.3740819 6.1846145 0
-7.6701498 3.8146511 0
-8.5520016 5.2933221 0
-8.5403231 5.2114084 0
-1.9293524 9.1898809 0
-8.2345671 5.7751163 0
-8.0003387 6.069538 0
2.5515631 10.025295 0
0.33877142 5.7888774 0
-8.113382 5.8015552 0
-8.2776421 3.8323034 0
9.0708924 -3.5234379 0
-0.09620244 6.1337056 0
1.2683777 -1.673729 0
7.4455035 7.4434708 0
10.817068 0.28568233 0
10.869733 1.6300078 0
10.916795 1.9108123 0
10.976231 0.83673444 0
10.524648 2.8899126 0
8.1497598 7.742526 0
11.898677 -1.0411539 0
-5.1599395 -5.987318 0
-8.028122 4.8881213 0
-2.0900518 10.442666 0
-1.2620936 10.761536 0
-3.0817695 11.036351 0
4.5806889 9.4838597 0
5.2301882 9.1654833 0
5.5817837 8.9492343 0
-3.5009973 9.5902055 0
-6.5010089 7.8831547 0
-6.9087045 7.4896636 0
-8.4122015 5.5795463 0
-1.9980631 4.9780094 0
-0.058834995 9.8495553 0
8.0192364 -4.1946532 0
5.2701124 8.9979293 0
-6.2722007 8.6799925 0
7.6259903 8.3453213 0
7.590506 8.5070246 0
7.5631937 8.5844058 0
7.5365637 8.6953546 0
7.565534 8.5722393 0
7.550293 8.6362946 0
7.3913079 9.1044964 0
7.3498535 9.2261422 0
7.6250868 7.8413567 0
7.6204568 7.9713355 0
7.6086435 7.6138104 0
7.5574599 7.9098376 0
-7.9156733 5.3187664 0
0.48123044 8.8560584 0
8.9949343 3.7042558 0
-2.2194034 10.796231 0
-6.645798 8.2605381 0
-6.3062297 8.6014556 0
-6.6678468 8.2364166 0
-7.5834866 7.0462348 0