# vtk DataFile Version 4.0
hesp visualization file
ASCII
DATASET UNSTRUCTURED_GRID
POINTS 1250 double
30.066199 2.1381828 4
29.629064 1.9201976 4
30.485689 2.9812279 4
30.453047 4.0783336 4
30.454545 5.2022618 4
30.453843 6.3240305 4
30.454735 7.4472923 4
30.453697 8.5688227 4
30.454152 9.6916895 4
30.455122 10.814953 4
30.456626 11.938789 4
30.444815 13.050796 4
30.445967 14.174247 4
30.441585 15.292922 4
30.441826 16.415592 4
30.543831 17.656545 4
30.543455 18.778442 4
30.544729 19.902878 4
30.544898 21.025592 4
30.524655 22.118052 4
30.525388 23.241429 4
30.524656 24.362976 4
30.520002 25.479282 4
30.521091 26.599409 4
30.537973 27.617171 4
31.748219 0.13818184 4
31.612295 3.0461753 4
30.772971 3.6715654 4
30.761512 4.7736053 4
30.760931 5.8948089 4
30.761166 7.017797 4
30.760999 8.1398775 4
30.761197 9.2627904 4
30.761114 10.385064 4
30.761035 11.507336 4
30.760728 12.6291 4
30.763037 13.756777 4
30.762818 14.878748 4
30.763733 16.003246 4
30.763683 17.125576 4
30.739437 18.186964 4
30.739499 19.309616 4
30.739206 20.43123 4
30.739182 21.553627 4
30.744653 22.691303 4
30.744587 23.813577 4
30.744652 24.936225 4
30.745639 26.061346 4
30.755916 27.206774 4
31.618449 28.503558 4
30.978815 1.6394131 4
31.359723 1.6226098 4
31.88836 3.1099348 4
31.890463 4.250117 4
31.891068 5.3736403 4
31.890822 6.4956861 4
31.890998 7.6184359 4
31.890789 8.7405573 4
31.890876 9.8631608 4
31.890961 10.985751 4
31.891284 12.108744 4
31.888848 13.227249 4
31.889079 14.350081 4
31.888114 15.470989 4
31.888176 16.59355 4
31.913032 17.761911 4
31.912973 18.884252 4
31.913249 20.007325 4
31.913271 21.129832 4
31.907944 22.240961 4
31.908011 23.363548 4
31.907941 24.485887 4
31.906945 25.606375 4
31.896624 26.706356 4
31.027183 27.659113 4
33.29313 -0.21992047 4
32.086062 2.5524948 4
32.03096 3.4543065 4
32.029089 4.5604982 4
32.029052 5.6826187 4
32.029061 6.8051652 4
32.029056 7.9275853 4
32.029062 9.0500978 4
32.02906 10.17254 4
32.029059 11.295002 4
32.02905 12.417381 4
32.029123 13.540452 4
32.029116 14.662859 4
32.029146 15.785573 4
32.029145 16.908015 4
32.028951 18.024595 4
32.028946 19.14705 4
32.028965 20.269455 4
32.028966 21.391917 4
32.028803 22.515871 4
32.028805 23.638337 4
32.028803 24.760795 4
32.028798 25.883502 4
32.030094 27.019232 4
32.262773 28.590663 4
33.095434 1.8765291 4
33.314415 2.0364739 4
33.171206 3.2673219 4
33.163745 4.4071868 4
33.163614 5.5300089 4
33.163641 6.6523907 4
33.163628 7.7748927 4
33.163644 8.8973068 4
33.163638 10.019788 4
33.163638 11.14225 4
33.163611 12.264791 4
33.163806 13.386678 4
33.163789 14.509192 4
33.163869 15.631417 4
33.163863 16.753897 4
33.161968 17.882382 4
33.161968 19.004844 4
33.161939 20.127399 4
33.161938 21.249864 4
33.162554 22.370398 4
33.162554 23.49286 4
33.162554 24.615322 4
33.162647 25.737499 4
33.168757 26.844943 4
33.030445 27.656615 4
33.366216 0.96952978 4
33.555901 2.4550348 4
33.456947 3.4081811 4
33.466223 4.5241063 4
33.466388 5.6464415 4
33.466352 6.7689246 4
33.46637 7.8913762 4
33.466349 9.0138508 4
33.466357 10.136308 4
33.466357 11.25877 4
33.466392 12.381211 4
33.466136 13.503824 4
33.466156 14.626272 4
33.466054 15.748796 4
33.466058 16.871253 4
33.468576 17.992423 4
33.468575 19.114884 4
33.468613 20.237321 4
33.468614 21.359782 4
33.467816 22.48277 4
33.467816 23.605232 4
33.467816 24.727694 4
33.467696 25.850233 4
33.460159 26.97868 4
33.356233 28.133071 4
34.560139 1.3899604 4
34.480253 2.1935808 4
34.475982 3.3592949 4
34.475931 4.4837925 4
34.475931 5.6062813 4
34.475931 6.7287433 4
34.475931 7.8512054 4
34.475931 8.9736674 4
34.475931 10.096129 4
34.475931 11.218591 4
34.475931 12.341054 4
34.475931 13.463516 4
34.475931 14.585978 4
34.475931 15.70844 4
34.475931 16.830902 4
34.475937 17.953101 4
34.475937 19.075563 4
34.475937 20.198025 4
34.475937 21.320487 4
34.475937 22.442949 4
34.475937 23.565411 4
34.475937 24.687873 4
34.475937 25.810336 4
34.475984 26.930932 4
34.486305 27.985115 4
35.093745 0.96881474 4
35.18374 2.2762936 4
34.810229 3.3702055 4
34.810265 4.4919614 4
34.810266 5.6144141 4
34.810266 6.7368762 4
34.810266 7.8593382 4
34.810266 8.9818003 4
34.810266 10.104262 4
34.810266 11.226724 4
34.810266 12.349186 4
34.810266 13.471648 4
34.810266 14.594111 4
34.810266 15.716573 4
34.810266 16.839035 4
34.810258 17.961588 4
34.810258 19.08405 4
34.810258 20.206512 4
34.810258 21.328974 4
34.810258 22.451436 4
34.810258 23.573899 4
34.810258 24.696361 4
34.810258 25.818823 4
34.810195 26.941929 4
34.796386 28.085579 4
35.802152 1.1232781 4
35.802147 2.2449292 4
35.802157 3.3673859 4
35.802158 4.4898482 4
35.802158 5.6123102 4
35.802158 6.7347723 4
35.802158 7.8572343 4
35.802158 8.9796964 4
35.802158 10.102158 4
35.802158 11.22462 4
35.802158 12.347083 4
35.802158 13.469545 4
35.802158 14.592007 4
35.802158 15.714469 4
35.802158 16.836931 4
35.802158 17.959393 4
35.802158 19.081855 4
35.802158 20.204317 4
35.802158 21.326779 4
35.802158 22.449241 4
35.802158 23.571703 4
35.802158 24.694165 4
35.802158 25.816627 4
35.802158 26.939084 4
35.802158 28.060735 4
36.92462 1.1232784 4
36.92462 2.2449291 4
36.92462 3.3673861 4
36.92462 4.4898482 4
36.92462 5.6123102 4
36.92462 6.7347723 4
36.92462 7.8572343 4
36.92462 8.9796964 4
36.92462 10.102158 4
36.92462 11.22462 4
36.92462 12.347083 4
36.92462 13.469545 4
36.92462 14.592007 4
36.92462 15.714469 4
36.92462 16.836931 4
36.92462 17.959393 4
36.92462 19.081855 4
36.92462 20.204317 4
36.92462 21.326779 4
36.92462 22.449241 4
36.92462 23.571703 4
36.92462 24.694165 4
36.92462 25.816627 4
36.92462 26.939084 4
36.92462 28.060735 4
38.047083 1.1232784 4
38.047083 2.2449291 4
38.047083 3.3673861 4
38.047083 4.4898482 4
38.047083 5.6123102 4
38.047083 6.7347723 4
38.047083 7.8572343 4
38.047083 8.9796964 4
38.047083 10.102158 4
38.047083 11.22462 4
38.047083 12.347083 4
38.047083 13.469545 4
38.047083 14.592007 4
38.047083 15.714469 4
38.047083 16.836931 4
38.047083 17.959393 4
38.047083 19.081855 4
38.047083 20.204317 4
38.047083 21.326779 4
38.047083 22.449241 4
38.047083 23.571703 4
38.047083 24.694165 4
38.047083 25.816627 4
38.047083 26.939084 4
38.047083 28.060735 4
39.169545 1.1232784 4
39.169545 2.2449291 4
39.169545 3.3673861 4
39.169545 4.4898482 4
39.169545 5.6123102 4
39.169545 6.7347723 4
39.169545 7.8572343 4
39.169545 8.9796964 4
39.169545 10.102158 4
39.169545 11.22462 4
39.169545 12.347083 4
39.169545 13.469545 4
39.169545 14.592007 4
39.169545 15.714469 4
39.169545 16.836931 4
39.169545 17.959393 4
39.169545 19.081855 4
39.169545 20.204317 4
39.169545 21.326779 4
39.169545 22.449241 4
39.169545 23.571703 4
39.169545 24.694165 4
39.169545 25.816627 4
39.169545 26.939084 4
39.169545 28.060735 4
40.292007 1.1232784 4
40.292007 2.2449291 4
40.292007 3.3673861 4
40.292007 4.4898482 4
40.292007 5.6123102 4
40.292007 6.7347723 4
40.292007 7.8572343 4
40.292007 8.9796964 4
40.292007 10.102158 4
40.292007 11.22462 4
40.292007 12.347083 4
40.292007 13.469545 4
40.292007 14.592007 4
40.292007 15.714469 4
40.292007 16.836931 4
40.292007 17.959393 4
40.292007 19.081855 4
40.292007 20.204317 4
40.292007 21.326779 4
40.292007 22.449241 4
40.292007 23.571703 4
40.292007 24.694165 4
40.292007 25.816627 4
40.292007 26.939084 4
40.292007 28.060735 4
41.414469 1.1232784 4
41.414469 2.2449291 4
41.414469 3.3673861 4
41.414469 4.4898482 4
41.414469 5.6123102 4
41.414469 6.7347723 4
41.414469 7.8572343 4
41.414469 8.9796964 4
41.414469 10.102158 4
41.414469 11.22462 4
41.414469 12.347083 4
41.414469 13.469545 4
41.414469 14.592007 4
41.414469 15.714469 4
41.414469 16.836931 4
41.414469 17.959393 4
41.414469 19.081855 4
41.414469 20.204317 4
41.414469 21.326779 4
41.414469 22.449241 4
41.414469 23.571703 4
41.414469 24.694165 4
41.414469 25.816627 4
41.414469 26.939084 4
41.414469 28.060735 4
42.536931 1.1232784 4
42.536931 2.2449291 4
42.536931 3.3673861 4
42.536931 4.4898482 4
42.536931 5.6123102 4
42.536931 6.7347723 4
42.536931 7.8572343 4
42.536931 8.9796964 4
42.536931 10.102158 4
42.536931 11.22462 4
42.536931 12.347083 4
42.536931 13.469545 4
42.536931 14.592007 4
42.536931 15.714469 4
42.536931 16.836931 4
42.536931 17.959393 4
42.536931 19.081855 4
42.536931 20.204317 4
42.536931 21.326779 4
42.536931 22.449241 4
42.536931 23.571703 4
42.536931 24.694165 4
42.536931 25.816627 4
42.536931 26.939084 4
42.536931 28.060735 4
43.659393 1.1232784 4
43.659393 2.2449291 4
43.659393 3.3673861 4
43.659393 4.4898482 4
43.659393 5.6123102 4
43.659393 6.7347723 4
43.659393 7.8572343 4
43.659393 8.9796964 4
43.659393 10.102158 4
43.659393 11.22462 4
43.659393 12.347083 4
43.659393 13.469545 4
43.659393 14.592007 4
43.659393 15.714469 4
43.659393 16.836931 4
43.659393 17.959393 4
43.659393 19.081855 4
43.659393 20.204317 4
43.659393 21.326779 4
43.659393 22.449241 4
43.659393 23.571703 4
43.659393 24.694165 4
43.659393 25.816627 4
43.659393 26.939084 4
43.659393 28.060735 4
44.781855 1.1232784 4
44.781855 2.2449291 4
44.781855 3.3673861 4
44.781855 4.4898482 4
44.781855 5.6123102 4
44.781855 6.7347723 4
44.781855 7.8572343 4
44.781855 8.9796964 4
44.781855 10.102158 4
44.781855 11.22462 4
44.781855 12.347083 4
44.781855 13.469545 4
44.781855 14.592007 4
44.781855 15.714469 4
44.781855 16.836931 4
44.781855 17.959393 4
44.781855 19.081855 4
44.781855 20.204317 4
44.781855 21.326779 4
44.781855 22.449241 4
44.781855 23.571703 4
44.781855 24.694165 4
44.781855 25.816627 4
44.781855 26.939084 4
44.781855 28.060735 4
45.904317 1.1232784 4
45.904317 2.2449291 4
45.904317 3.3673861 4
45.904317 4.4898482 4
45.904317 5.6123102 4
45.904317 6.7347723 4
45.904317 7.8572343 4
45.904317 8.9796964 4
45.904317 10.102158 4
45.904317 11.22462 4
45.904317 12.347083 4
45.904317 13.469545 4
45.904317 14.592007 4
45.904317 15.714469 4
45.904317 16.836931 4
45.904317 17.959393 4
45.904317 19.081855 4
45.904317 20.204317 4
45.904317 21.326779 4
45.904317 22.449241 4
45.904317 23.571703 4
45.904317 24.694165 4
45.904317 25.816627 4
45.904317 26.939084 4
45.904317 28.060735 4
47.02678 1.1232784 4
47.026779 2.2449291 4
[...]
POINT_DATA 1250
SCALARS m double
LOOKUP_TABLE default
1
1
1
1
1
1
1
1
1
1
1
1
1
1
1
1
1
1
1
1
1
1
1
1
1
1
1
1
1
1
1
1
1
1
1
1
1
1
1
1
1
1
1
1
1
1
1
1
1
1
1
1
1
1
1
1
1
1
1
1
1
1
1
1
1
1
1
1
1
1
1
1
1
1
1
1
1
1
1
1
1
1
1
1
1
1
1
1
1
1
1
1
1
1
1
1
1
1
1
1
1
1
1
1
1
1
1
1
1
1
1
1
1
1
1
1
1
1
1
1
1
1
1
1
1
1
1
1
1
1
1
1
1
1
1
1
1
1
1
1
1
1
1
1
1
1
1
1
1
1
1
1
1
1
1
1
1
1
1
1
1
1
1
1
1
1
1
1
1
1
1
1
1
1
1
1
1
1
1
1
1
1
1
1
1
1
1
1
1
1
1
1
1
1
1
1
1
1
1
1
1
1
1
1
1
1
1
1
1
1
1
1
1
1
1
1
1
1
1
1
1
1
1
1
1
1
1
1
1
1
1
1
1
1
1
1
1
1
1
1
1
1
1
1
1
1
1
1
1
1
1
1
1
1
1
1
1
1
1
1
1
1
1
1
1
1
1
1
1
1
1
1
1
1
1
1
1
1
1
1
1
1
1
1
1
1
1
1
1
1
1
1
1
1
1
1
1
1
1
1
1
1
1
1
1
1
1
1
1
1
1
1
1
1
1
1
1
1
1
1
1
1
1
1
1
1
1
1
1
1
1
1
1
1
1
1
1
1
1
1
1
1
1
1
1
1
1
1
1
1
1
1
1
1
1
1
1
1
1
1
1
1
1
1
1
1
1
1
1
1
1
1
1
1
1
1
1
1
1
1
1
1
1
1
1
1
1
1
1
1
1
1
1
1
1
1
1
1
1
1
1
1
1
1
1
1
1
1
1
1
1
1
1
1
1
1
1
1
1
1
1
1
1
1
1
1
1
1
1
1
1
1
1
1
1
1
1
1
1
1
1
1
1
1
1
1
1
1
1
1
1
1
1
1
1
1
1
1
1
1
1
1
1
1
1
1
1
1
1
1
1
1
1
1
1
1
1
1
1
1
1
1
1
1
1
1
1
1
1
1
1
1
1
1
1
1
1
1
1
1
1
1
1
1
1
1
1
1
1
1
1
1
1
1
1
1
1
1
1
1
1
1
1
1
1
1
1
1
1
1
1
1
1
1
1
1
1
1
1
1
1
1
1
1
1
1
1
1
1
1
1
1
1
1
1
1
1
1
1
1
1
1
1
1
1
1
1
1
1
1
1
1
1
1
1
1
1
1
1
1
1
1
1
1
1
1
1
1
1
1
1
1
1
1
1
1
1
1
1
1
1
1
1
1
1
1
1
1
1
1
1
1
1
1
1
1
1
1
1
1
1
1
1
1
1
1
1
1
1
1
1
1
1
1
1
1
1
1
1
1
1
1
1
1
1
1
1
1
1
1
1
1
1
1
1
1
1
1
1
1
1
1
1
1
1
1
1
1
1
1
1
1
1
1
1
1
1
1
1
1
1
1
1
1
1
1
1
1
1
1
1
1
1
1
1
1
1
1
1
1
1
1
1
1
1
1
1
1
1
1
1
1
1
1
1
1
1
1
1
1
1
1
1
1
1
1
1
1
1
1
1
1
1
1
1
1
1
1
1
1
1
1
1
1
1
1
1
1
1
1
1
1
1
1
1
1
1
1
1
1
1
1
1
1
1
1
1
1
1
1
1
1
1
1
1
1
1
1
1
1
1
1
1
1
1
1
1
1
1
1
1
1
1
1
1
1
1
1
1
1
1
1
1
1
1
1
1
1
1
1
1
1
1
1
1
1
1
1
1
1
1
1
1
1
1
1
1
1
1
1
1
1
1
1
1
1
1
1
1
1
1
1
1
1
1
1
1
1
1
1
1
1
1
1
1
1
1
1
1
1
1
1
1
1
1
1
1
1
1
1
1
1
1
1
1
1
1
1
1
1
1
1
1
1
1
1
1
1
1
1
1
1
1
1
1
1
1
1
1
1
1
1
1
1
1
1
1
1
1
1
1
1
1
1
1
1
1
1
1
1
1
1
1
1
1
1
1
1
1
1
1
1
1
1
1
1
1
1
1
1
1
1
1
1
1
1
1
1
1
1
1
1
1
1
1
1
1
1
1
1
1
1
1
1
1
1
1
1
1
1
1
1
1
1
1
1
1
1
1
1
1
1
1
1
1
1
1
1
1
1
1
1
1
1
1
1
1
1
1
1
1
1
1
1
1
1
1
1
1
1
1
1
1
1
1
1
1
1
1
1
1
1
1
1
1
1
1
1
1
1
1
1
1
1
1
1
1
1
1
1
1
1
1
1
1
1
1
1
1
1
1
1
1
1
1
1
1
1
1
1
1
1
1
1
1
1
1
1
1
1
1
1
1
1
1
1
1
1
1
1
1
1
1
1
1
1
1
1
1
1
1
1
1
1
1
1
1
1
1
1
1
1
1
1
1
1
1
1
1
1
1
1
1
1
1
1
1
1
1
1
1
1
1
1
1
1
1
1
1
1
1
1
1
1
1
1
1
1
1
1
1
1
1
1
1
1
1
1
1
1
1
1
1
1
1
1
1
1
1
1
1
1
1
1
1
1
1
1
1
1
1
1
1
1
1
1
1
1
1
1
1
1
1
1
1
1
1
1
1
1
1
1
1
1
1
1
1
1
1
1
1
1
1
1
1
1
1
1
1
1
1
1
1
1
1
1
1
1
1
1
1
1
1
1
1
1
1
1
1
1
1
1
1
1
1
1
1
1
1
1
1
1
1
1
1
1
1
1
1
1
VECTORS v double
-5.7590766 9.5264006 0
-9.3180632 -3.1975392 0
7.4613468 -6.745769 0
6.8800643 -7.2518406 0
6.906528 -7.2256718 0
6.893731 -7.2378695 0
6.9098993 -7.2232179 0
6.8911026 -7.2402754 0
6.8993417 -7.2328525 0
6.9168617 -7.2176222 0
6.944103 -7.1925238 0
6.7300561 -7.3838447 0
6.7510086 -7.3658616 0
6.6714901 -7.4348812 0
6.6759048 -7.4312589 0
8.5224503 -5.2865595 0
8.5151242 -5.2956195 0
8.5382281 -5.259567 0
8.5412806 -5.2548325 0
8.1743405 -5.7973254 0
8.187704 -5.7803944 0
8.1745109 -5.7976203 0
8.0904144 -5.9100391 0
8.1075006 -5.9248895 0
8.4434306 -6.7545449 0
8.8417813 -9.0869963 0
2.1668471 10.382235 0
-8.690537 5.1890671 0
-8.8964029 4.8224647 0
-8.9069199 4.8010027 0
-8.9026482 4.8098919 0
-8.9056959 4.8034853 0
-8.9021024 4.8110558 0
-8.903586 4.8079039 0
-8.9050143 4.8047589 0
-8.9107351 4.792979 0
-8.8688529 4.8805871 0
-8.8728776 4.8723125 0
-8.8562872 4.9065161 0
-8.8550272 4.9030507 0
-9.2991044 3.8714076 0
-9.2978976 3.874664 0
-9.3034203 3.8601338 0
-9.3041788 3.859422 0
-9.202544 4.1190198 0
-9.2038166 4.1158309 0
-9.2026529 4.1190802 0
-9.1844565 4.164268 0
-8.9988108 4.5864429 0
7.4742338 6.8320072 0
-9.4152227 3.9894255 0
-2.4433552 -9.8634883 0
11.120032 -3.5186711 0
8.9415115 -4.3177252 0
8.9517318 -4.2997539 0
8.9475689 -4.3069082 0
8.9505457 -4.3018761 0
8.9470241 -4.3078316 0
8.9484936 -4.3053517 0
8.9499281 -4.3030193 0
8.9553641 -4.2937806 0
8.9137738 -4.3636463 0
8.9177714 -4.3570003 0
8.9009925 -4.3848745 0
8.9020706 -4.3831288 0
9.097398 -3.9457055 0
9.0983443 -3.9448186 0
9.091897 -3.9517549 0
9.0914827 -3.9521732 0
9.1492102 -3.9126799 0
9.1494108 -3.9119418 0
9.1492012 -3.9126612 0
9.1476283 -3.9223651 0
9.0487344 -4.158466 0
-7.5639121 -6.4487096 0
3.9469262 -13.879668 0
-9.1176828 4.5647691 0
-9.9738651 1.3876834 0
-10.012841 1.1209465 0
-10.012954 1.116847 0
-10.012997 1.1176475 0
-10.012947 1.117346 0
-10.013005 1.1177174 0
-10.012981 1.1175726 0
-10.012931 1.1177262 0
-10.012835 1.1171214 0
-10.013025 1.1225403 0
-10.013061 1.1219774 0
-10.012823 1.1247923 0
-10.012785 1.1244305 0
-9.7715955 1.453573 0
-9.7736447 1.4502277 0
-9.7619864 1.4677377 0
-9.761183 1.4690575 0
-9.9160355 1.2416452 0
-9.9150215 1.2433785 0
-9.9160355 1.2416479 0
-9.9321717 1.2183108 0
-9.9943576 1.2807039 0
-5.691169 8.8691447 0
-5.2116906 -1.4060026 0
0.17001939 -6.1071946 0
-7.647239 -7.0857133 0
-8.496442 -5.8380194 0
-8.5110571 -5.8127027 0
-8.5080061 -5.8181029 0
-8.5095218 -5.8154209 0
-8.507698 -5.8186474 0
-8.5084272 -5.8173576 0
-8.5084267 -5.8173584 0
-8.5114249 -5.8120508 0
-8.4894452 -5.8508047 0
-8.4914217 -5.8473245 0
-8.4823431 -5.8632533 0
-8.483023 -5.8620597 0
-8.6958815 -5.4672719 0
-8.6958899 -5.4672601 0
-8.6991406 -5.4610161 0
-8.6992253 -5.4608529 0
-8.6306214 -5.5907053 0
-8.6306201 -5.590706 0
-8.6306337 -5.5906809 0
-8.6203099 -5.609881 0
-7.9333808 -6.6925176 0
5.5674052 -7.6011972 0
-9.8418518 -2.040266 0
5.8442524 14.936753 0
7.5579709 5.9611367 0
8.438955 4.9192368 0
8.4541658 4.8983451 0
8.4509718 4.9026128 0
8.4525581 4.9004932 0
8.4506486 4.9030432 0
8.4514121 4.9020239 0
8.4514114 4.9020244 0
8.4545501 4.8978302 0
8.431535 4.928452 0
8.4335977 4.9257076 0
8.4240993 4.9382854 0
8.4248048 4.9373306 0
8.6484409 4.6333658 0
8.6484473 4.6333502 0
8.651847 4.6283926 0
8.6519351 4.6282654 0
8.5801733 4.7312832 0
8.5801719 4.7312855 0
8.5801857 4.7312651 0
8.5693798 4.7464935 0
7.8569988 5.6595985 0
-9.9512962 1.1802446 0
-6.8442374 8.3993145 0
-9.8979143 -1.619731 0
-10.036003 -0.54655987 0
-10.04134 -0.40926697 0
-10.0414 -0.40746324 0
-10.0414 -0.40746316 0
-10.0414 -0.40746315 0
-10.0414 -0.40746317 0
-10.0414 -0.40746316 0
-10.0414 -0.40746317 0
-10.0414 -0.40746324 0
-10.0414 -0.4074619 0
-10.041399 -0.40747044 0
-10.0414 -0.40746107 0
-10.0414 -0.40745265 0
-10.040801 -0.42522372 0
-10.040801 -0.42522301 0
-10.040801 -0.42522303 0
-10.040801 -0.42522301 0
-10.040801 -0.42522048 0
-10.040801 -0.42522042 0
-10.040801 -0.42521853 0
-10.040802 -0.42519823 0
-10.035825 -0.55095225 0
-8.9230734 -5.1239986 0
7.8777842 -6.7208964 0
11.0943 1.3214177 0
10.038621 0.44586023 0
10.043978 0.33387139 0
10.044039 0.33239915 0
10.044039 0.33239905 0
10.044039 0.33239904 0
10.044039 0.33239906 0
10.044039 0.33239905 0
10.044039 0.33239906 0
10.044039 0.33239912 0
10.04404 0.33239801 0
10.044039 0.33240498 0
10.04404 0.33239736 0
10.04404 0.33239071 0
10.043407 0.34688645 0
10.043407 0.34688603 0
10.043407 0.34688602 0
10.043407 0.34688601 0
10.043407 0.3468839 0
10.043407 0.34688388 0
10.043407 0.34688233 0
10.043407 0.34686829 0
10.038159 0.44947107 0
8.8652435 4.1447475 0
-10.001028 0.0036802729 0
-10.00229 8.9409292e-05 0
-10.000102 -2.6363249e-05 0
-10.000085 -6.8030244e-07 0
-10.000085 2.6560934e-08 0
-10.000085 2.6639301e-08 0
-10.000085 2.6640885e-08 0
-10.000085 2.6641346e-08 0
-10.000085 2.6641165e-08 0
-10.000085 2.6641162e-08 0
-10.000085 2.6640357e-08 0
-10.000085 2.6646228e-08 0
-10.000085 2.6645134e-08 0
-10.000085 2.6626078e-08 0
-10.000085 2.7214368e-08 0
-10.000085 2.6963338e-08 0
-10.000085 2.7693152e-08 0
-10.000085 2.7672791e-08 0
-10.000085 2.7672711e-08 0
-10.000085 2.7693678e-08 0
-10.000085 2.7693325e-08 0
-10.000085 2.7653915e-08 0
-10.000085 6.0505885e-08 0
-10.000085 -2.029521e-05 0
-10.000072 -0.0038060251 0
-10.000004 0.0038004168 0
-10.000004 1.9884852e-05 0
-10.000002 -6.673711e-07 0
-10.000001 -5.3927718e-10 0
-10.000001 -4.1721966e-10 0
-10.000001 -4.1734504e-10 0
-10.000001 -4.1734549e-10 0
-10.000001 -4.173466e-10 0
-10.000001 -4.1734297e-10 0
-10.000001 -4.1734775e-10 0
-10.000001 -4.173451e-10 0
-10.000001 -4.1734393e-10 0
-10.000001 -4.1735213e-10 0
-10.000001 -4.1734235e-10 0
-10.000001 -4.2200597e-10 0
-10.000001 -4.3431543e-10 0
-10.000001 -4.3574953e-10 0
-10.000001 -4.3555089e-10 0
-10.000001 -4.3554973e-10 0
-10.000001 -4.3554618e-10 0
-10.000001 -4.3572189e-10 0
-10.000001 -3.219999e-10 0
-10.000001 6.0284827e-08 0
-10.000001 -2.0270496e-05 0
-10.000001 -0.0037999236 0
-10 0.0037998209 0
-10 2.0266553e-05 0
-10 -6.0754804e-08 0
-10 -1.2199977e-10 0
-10 -8.4667024e-12 0
-10 4.8783304e-15 0
-10 -4.245713e-17 0
-10 -1.1450869e-15 0
-10 2.4893867e-15 0
-10 -2.2559653e-15 0
-10 -9.7245443e-17 0
-10 2.0659382e-15 0
-10 -2.4656334e-13 0
-10 -2.4447572e-13 0
-10 -1.5960968e-17 0
-10 2.204268e-15 0
-9.9999999 -2.3347719e-15 0
-9.9999999 -6.5417462e-17 0
-9.9999999 2.0143481e-16 0
-9.9999999 1.8366788e-15 0
-9.9999999 -1.7444472e-13 0
-9.9999999 1.1354495e-10 0
-9.9999999 6.0754901e-08 0
-9.9999999 -2.0266553e-05 0
-9.9999999 -0.0037998209 0
-9.9999999 0.0037998209 0
-9.9999999 2.0266553e-05 0
-9.9999999 -6.07549e-08 0
-9.9999999 -1.1354559e-10 0
-9.9999998 1.7253685e-13 0
-9.9999998 2.2128258e-16 0
-9.9999998 -3.1934657e-18 0
-9.9999998 -1.0783142e-15 0
-9.9999998 2.7103322e-15 0
-9.9999998 -2.0332594e-15 0
-9.9999998 -2.7348377e-17 0
-9.9999998 2.1290561e-15 0
-9.9999998 -2.1815648e-15 0
-9.9999997 -9.299398e-17 0
-9.9999997 4.5193473e-17 0
-9.9999997 1.9900793e-13 0
-9.9999997 1.9702128e-13 0
-9.9999997 2.8062783e-15 0
-9.9999997 -1.4532561e-12 0
-9.9999997 2.0126073e-13 0
-9.9999997 1.4787897e-12 0
-9.9999997 1.1354505e-10 0
-9.9999997 6.0754901e-08 0
-9.9999997 -2.0266553e-05 0
-9.9999997 -0.0037998209 0
-9.9999997 0.0037998209 0
-9.9999997 2.0266547e-05 0
-9.9999997 -6.0763421e-08 0
-9.9999997 -1.0659648e-10 0
-9.9999997 8.812377e-12 0
-9.9999997 -4.6188579e-15 0
-9.9999997 -2.0535048e-17 0
-9.9999997 -1.0428231e-15 0
-9.9999997 -1.4537531e-12 0
-9.9999997 -1.4584742e-12 0
-9.9999997 6.3280311e-16 0
-9.9999997 2.7622134e-15 0
-9.9999997 2.421688e-13 0
-9.9999997 2.4423128e-13 0
-9.9999997 5.0147922e-17 0
-9.9999997 4.0556863e-15 0
-9.9999997 -6.1174916e-12 0
-9.9999997 -6.1132461e-12 0
-9.9999997 -8.4519136e-12 0
-9.9999996 -8.4503626e-12 0
-9.9999998 -1.7061489e-13 0
-9.9999998 1.1354511e-10 0
-9.9999998 6.0754901e-08 0
-9.9999998 -2.0266553e-05 0
-9.9999998 -0.0037998209 0
-9.9999998 0.0037998209 0
-9.9999998 2.0266556e-05 0
-9.9999997 -6.0751927e-08 0
-9.9999996 -1.1355124e-10 0
-9.9999996 1.6768252e-13 0
-9.9999996 -1.3959186e-17 0
-9.9999996 1.0087532e-15 0
-9.9999996 2.6336023e-16 0
-9.9999996 2.9006727e-15 0
-9.9999996 -1.8018764e-15 0
-9.9999996 -2.9694905e-12 0
-9.9999996 -2.9671802e-12 0
-9.9999996 -1.6078035e-15 0
-9.9999996 -6.7424701e-17 0
-9.9999996 8.4267592e-17 0
-9.9999996 2.3524711e-15 0
-9.9999996 -1.3751555e-15 0
-9.9999995 9.2943626e-16 0
-9.9999995 1.4572975e-12 0
-9.9999994 -4.8908576e-12 0
-9.9999994 -6.5237107e-12 0
-9.9999994 1.1354609e-10 0
-9.9999994 6.0754901e-08 0
-9.9999994 -2.0266553e-05 0
-9.9999994 -0.0037998209 0
-9.9999994 0.0037998209 0
-9.9999994 2.026656e-05 0
-9.9999994 -6.0746389e-08 0
-9.9999994 -1.1377397e-10 0
-9.9999994 -1.7461031e-12 0
-9.9999994 1.185465e-15 0
-9.9999994 -3.7977322e-12 0
-9.9999994 -5.8086514e-12 0
-9.9999994 -1.152667e-12 0
-9.9999994 8.5206572e-13 0
-9.9999994 -2.4653084e-17 0
-9.9999993 -1.4192896e-12 0
-9.9999993 -1.4233972e-12 0
-9.9999993 3.4289281e-15 0
-9.9999993 7.1407104e-15 0
-9.9999993 -2.5537136e-14 0
-9.9999993 2.282667e-12 0
-9.9999993 2.3145131e-12 0
-9.9999993 8.453593e-12 0
-9.9999993 8.455757e-12 0
-9.9999993 -1.7604634e-13 0
-9.9999993 1.1354503e-10 0
-9.9999993 6.0754904e-08 0
-9.9999993 -2.0266561e-05 0
-9.9999993 -0.0037998209 0
-9.9999993 0.0037998209 0
-9.9999993 2.026655e-05 0
-9.9999993 -6.075788e-08 0
-9.9999993 -1.1370524e-10 0
-9.9999991 1.2905155e-14 0
-9.9999991 1.1130208e-15 0
-9.9999991 8.9761552e-16 0
-9.9999991 -1.0710737e-15 0
-9.999999 2.2625383e-15 0
-9.9999991 -2.8614952e-15 0
-9.9999991 2.9694336e-12 0
-9.9999991 2.9690294e-12 0
-9.999999 -2.3568938e-15 0
-9.999999 -6.7777359e-12 0
-9.999999 -1.4427061e-11 0
-9.999999 3.9552216e-12 0
-9.999999 1.1613919e-11 0
-9.9999989 1.8280263e-14 0
-9.9999989 2.1161596e-14 0
-9.9999989 4.7245147e-12 0
-9.9999989 4.5515637e-12 0
-9.9999989 1.1356968e-10 0
-9.9999989 6.0754923e-08 0
-9.9999989 -2.0266553e-05 0
-9.9999988 -0.0037998209 0
-9.9999988 0.0037998209 0
-9.9999988 2.0266553e-05 0
-9.9999988 -6.0755459e-08 0
-9.9999988 -1.1218476e-10 0
-9.9999987 2.1167066e-12 0
-9.9999987 -3.5506124e-12 0
-9.9999987 2.4779202e-13 0
-9.9999987 5.8318788e-12 0
-9.9999987 2.6389599e-12 0
-9.9999987 6.2416855e-13 0
-9.9999987 2.3886972e-14 0
-9.9999987 1.6445774e-12 0
-9.9999987 1.6465056e-12 0
-9.9999987 2.5383108e-14 0
-9.9999986 -1.7441379e-12 0
-9.9999985 -2.8565337e-12 0
-9.9999988 1.0098974e-11 0
-9.9999988 8.8391163e-12 0
-9.9999988 5.0189183e-12 0
-9.9999988 -2.6218497e-12 0
-9.9999988 -6.1608153e-12 0
-9.9999988 1.1520186e-10 0
-9.9999988 6.0767798e-08 0
-9.9999988 -2.0266533e-05 0
-9.9999988 -0.0037998209 0
-9.9999988 0.0037998209 0
-9.9999988 2.0266574e-05 0
-9.9999988 -6.0749788e-08 0
-9.9999987 -1.0824269e-10 0
-9.9999987 5.4577867e-12 0
-9.9999987 3.9963689e-12 0
-9.9999987 3.0282802e-12 0
-9.9999987 3.0263423e-12 0
-9.9999987 4.0375423e-12 0
-9.9999987 4.032516e-12 0
-9.9999987 4.0350098e-12 0
-9.9999987 4.0779352e-12 0
-9.9999987 -4.0778911e-12 0
-9.9999987 1.129096e-11 0
-9.9999987 2.8134976e-11 0
-9.9999982 -1.7289094e-10 0
-9.9999982 4.8723098e-07 0
-9.9999982 4.872241e-07 0
-9.9999982 4.8722394e-07 0
-9.9999981 4.8722395e-07 0
-9.9999981 4.8722183e-07 0
-9.999998 4.8733553e-07 0
-9.999998 5.4796685e-07 0
-9.9999979 -1.977931e-05 0
-9.9999979 -0.0037993327 0
-9.9999905 0.0037998207 0
-9.9999977 2.0755838e-05 0
-9.9999977 4.2649094e-07 0
-9.9999977 4.8712783e-07 0
-9.9999977 4.8733582e-07 0
-9.9999977 4.8705636e-07 0
-9.9999977 4.8706833e-07 0
-9.9999977 4.8706284e-07 0
-9.9999977 4.8706284e-07 0
-9.9999977 4.8706472e-07 0
-9.9999977 4.8707349e-07 0
-9.9999977 4.8694336e-07 0
-9.9999977 4.8721306e-07 0
-9.9999976 4.8723869e-07 0
-9.9999977 4.8723613e-07 0
-9.9999977 4.8529202e-07 0
-9.9999971 9.7588253e-07 0
-9.9999971 9.7395648e-07 0
-9.9999971 9.7395191e-07 0
-9.9999971 9.7395816e-07 0
-9.9999971 9.7396107e-07 0
-9.9999971 9.7406471e-07 0
-9.9999971 1.0345028e-06 0
-9.9999966 -1.8805391e-05 0
-9.9999966 -0.0037983585 0
-9.9999747 0.0037998185 0
-9.9999965 2.1732189e-05 0
-9.9999965 1.4002319e-06 0
-9.9999965 1.4608652e-06 0
-9.9999966 1.4629568e-06 0
-9.9999967 9.7228332e-07 0
-9.9999967 9.7426221e-07 0
-9.9999967 9.7427257e-07 0
-9.9999967 9.7427156e-07 0
-9.9999967 9.7427295e-07 0
-9.9999967 9.7426559e-07 0
-9.9999967 9.718597e-07 0
-9.9999962 1.4633889e-06 0
-9.9999961 1.4615676e-06 0
-9.9999961 1.4615522e-06 0
-9.9999961 1.4615864e-06 0
-9.9999961 1.4618624e-06 0
-9.9999959 1.4617334e-06 0
-9.9999959 1.4617339e-06 0
-9.9999959 1.4617303e-06 0
-9.9999959 1.4617321e-06 0
-9.9999958 1.4618512e-06 0
-9.9999957 1.5224177e-06 0
-9.9999957 -1.8804687e-05 0
-9.9999957 -0.0037983568 0
-9.9999738 0.003799818 0
-9.9999956 2.1736554e-05 0
-9.9999956 1.4011177e-06 0
-9.9999956 1.4617433e-06 0
-9.9999956 1.4618723e-06 0
-9.9999956 1.4615902e-06 0
-9.9999955 1.4616843e-06 0
-9.9999955 1.4616782e-06 0
-9.9999954 1.4616832e-06 0
-9.9999954 1.4616873e-06 0
-9.9999954 1.4616524e-06 0
-9.9999954 1.4551635e-06 0
-9.9999898 5.8508357e-06 0
-9.9999898 5.8441949e-06 0
-9.9999898 5.8441681e-06 0
-9.9999898 5.8441772e-06 0
-9.9999898 5.8441802e-06 0
-9.9999897 5.8441765e-06 0
-9.9999897 5.8437982e-06 0
-9.9999896 5.8446074e-06 0
-9.9999896 5.8446704e-06 0
-9.9999896 5.8447819e-06 0
-9.9999895 5.9042662e-06 0
-9.999989 -1.3933837e-05 0
-9.9999889 -0.0037934848 0
-9.9998939 0.0037998099 0
-9.9999889 2.6619682e-05 0
-9.9999889 6.2708197e-06 0
-9.9999888 6.3313874e-06 0
-9.9999882 6.8185204e-06 0
-9.9999882 6.8186615e-06 0
-9.9999882 6.8186722e-06 0
-9.9999883 6.818639e-06 0
-9.9999877 7.3057554e-06 0
-9.9999877 7.3057145e-06 0
-9.9999877 7.3057151e-06 0
-9.9999876 7.305851e-06 0
-9.9999876 7.3067814e-06 0
-9.9999876 7.3063218e-06 0
-9.9999877 7.3062154e-06 0
-9.9999872 7.7934878e-06 0
-9.9999871 7.7934692e-06 0
-9.9999871 7.7934516e-06 0
-9.9999871 7.7878058e-06 0
-9.9999844 1.0233383e-05 0
-9.9999843 1.0227733e-05 0
-9.9999843 1.0227829e-05 0
-9.9999843 1.0288482e-05 0
-9.9999843 -1.0038615e-05 0
-9.9999842 -0.0037895852 0
-9.9998308 0.0037998054 0
-9.9999841 3.0522685e-05 0
-9.9999837 1.0167082e-05 0
-9.9999837 1.0714827e-05 0
-9.9999837 1.0713744e-05 0
-9.9999832 1.1202866e-05 0
-9.9999831 1.1201844e-05 0
-9.9999831 1.1201913e-05 0
-9.9999831 1.1201793e-05 0
-9.9999831 1.1202141e-05 0
-9.9999825 1.1202138e-05 0
-9.9999825 1.1689232e-05 0
-9.9999825 1.16892e-05 0
-9.9999825 1.1689082e-05 0
-9.9999825 1.1688174e-05 0
-9.999982 1.2177341e-05 0
-9.9999819 1.2176236e-05 0
-9.9999818 1.2176222e-05 0
-9.9999818 1.2176219e-05 0
-9.9999818 1.2177019e-05 0
-9.9999817 1.217647e-05 0
-9.9999817 1.2176595e-05 0
-9.9999817 1.2237506e-05 0
-9.9999817 -8.089736e-06 0
-9.9999817 -0.003787635 0
-9.99982 0.0037999615 0
-10.000005 3.0542878e-05 0
-10.000004 1.1143175e-05 0
-10.000003 1.169029e-05 0
-10.000003 1.1689857e-05 0
-10.000003 1.1688841e-05 0
-10.000002 1.2664398e-05 0
-10.000002 1.3151814e-05 0
-10.000001 1.314873e-05 0
-10 1.4126683e-05 0
-10 1.4124361e-05 0
-10.000001 1.4124451e-05 0
-10.000001 1.4124401e-05 0
-10 1.4122744e-05 0
-9.9999999 1.4612944e-05 0
-9.9999994 1.4611164e-05 0
-9.9999994 1.5098569e-05 0
-9.9999994 1.5098349e-05 0
-9.9999994 1.5098341e-05 0
-9.9999916 1.5098312e-05 0
-9.9999915 1.5098465e-05 0
-9.9999832 1.5584066e-05 0
-9.9999832 1.5644612e-05 0
-9.9999832 -4.7003031e-06 0
-9.9999837 -0.0037843815 0
-10.003334 0.0035891291 0
-10.003763 3.6358961e-05 0
-10.003763 1.5539304e-05 0
-10.003762 1.6088434e-05 0
-10.003762 1.6574655e-05 0
-10.003762 1.6574401e-05 0
-10.003762 1.6574926e-05 0
-10.003762 1.6087359e-05 0
-10.003777 1.7061679e-05 0
-10.003777 1.7062598e-05 0
-10.003776 1.7061856e-05 0
-10.003776 1.7550391e-05 0
-10.003776 1.7549493e-05 0
-10.003775 1.8037694e-05 0
-10.003775 1.8037652e-05 0
-10.003775 1.803754e-05 0
-10.003775 1.8037494e-05 0
-10.003775 1.8525626e-05 0
-10.003775 1.852563e-05 0
-10.003775 1.8525398e-05 0
-10.003774 1.9015614e-05 0
-10.003774 1.9012452e-05 0
-10.003766 1.9070391e-05 0
-10.003766 -1.2285071e-06 0
-10.003556 -0.0035701451 0
9.287134 -3.6721383 0
9.6422956 2.3315683 0
-7.4611949 6.6053825 0
-6.8952825 7.3010451 0
-6.9102241 7.2671786 0
-6.8974236 7.2792729 0
-6.9135142 7.2632578 0
-6.8948253 7.2818822 0
-6.9029397 7.2736571 0
-6.920207 7.2555747 0
-6.9477227 7.2287997 0
-6.7350007 7.4371598 0
-6.7559029 7.4173986 0
-6.6768495 7.4918449 0
-6.6783329 7.4845944 0
-8.5254921 5.2128538 0
-8.5186292 5.2245015 0
-8.5422205 5.18527 0
-8.5455619 5.1803497 0
-8.1746152 5.7540219 0
-8.1879441 5.7337928 0
-8.1747434 5.7541685 0
-8.0900262 5.8757076 0
-8.1053879 5.8127895 0
-8.2717652 3.8294506 0
-4.2265501 7.0550262 0
-2.7141133 -7.8430894 0
9.3866486 -3.6846709 0
8.6896031 -5.2100714 0
8.7039926 -5.1863983 0
8.7004754 -5.1931233 0
8.7128932 -5.1707429 0
8.698652 -5.1964043 0
8.7052585 -5.1845842 0
8.7278416 -5.1446687 0
8.7469944 -5.1093876 0
8.5852449 -5.3958666 0
8.6014901 -5.3683429 0
8.5456541 -5.4636135 0
8.5482983 -5.4593001 0
9.6013574 -3.0250144 0
9.5976523 -3.0322789 0
9.6117869 -2.9856089 0
9.6143948 -2.9768783 0
9.4268191 -3.5553157 0
9.4419943 -3.5144193 0
9.4269623 -3.5560236 0
9.3695028 -3.7136988 0
9.5290143 -3.2581547 0
0.0015052662 9.8953068 0
8.0232041 -4.2019857 0
6.1502343 6.4959714 0
-7.2175459 6.2775989 0
-8.7259944 4.686291 0
-8.7404798 4.6627011 0
-8.7367833 4.6683006 0
-8.7502254 4.6462265 0
-8.7348127 4.6715153 0
-8.7419565 4.6597686 0
-8.7665214 4.6184167 0
-8.7871338 4.5843254 0
-8.6115294 4.8683388 0
-8.6289738 4.8408814 0