# vtk DataFile Version 4.0
hesp visualization file
ASCII
DATASET UNSTRUCTURED_GRID
POINTS 1250 double
30.008621 2.2334753 4
29.535947 1.8882634 4
30.560286 2.9136549 4
30.521961 4.0056601 4
30.523705 5.1298591 4
30.522874 6.2515065 4
30.523927 7.3749145 4
30.522703 8.4962745 4
30.52324 9.6192152 4
30.524384 10.742631 4
30.526159 11.866719 4
30.512215 12.976812 4
30.513581 14.10044 4
30.508405 15.218425 4
30.508692 16.34113 4
30.629087 17.603637 4
30.628625 18.725482 4
30.63013 19.850282 4
30.630329 20.973044 4
30.606418 22.060046 4
30.607289 23.183584 4
30.606424 24.304958 4
30.600931 25.420134 4
30.602191 26.540104 4
30.622725 27.549452 4
31.836637 0.047311953 4
31.630244 3.1494287 4
30.685951 3.7236103 4
30.672452 4.8219759 4
30.671767 5.942964 4
30.672045 7.0660414 4
30.671847 8.1880576 4
30.672081 9.3110465 4
30.671984 10.433289 4
30.671892 11.555529 4
30.67152 12.677174 4
30.674244 13.805732 4
30.673982 14.927619 4
30.675062 16.05246 4
30.675108 17.174683 4
30.646427 18.225681 4
30.646502 19.348365 4
30.646154 20.469832 4
30.646116 21.592236 4
30.652604 22.732535 4
30.652525 23.854777 4
30.6526 24.977462 4
30.653768 26.103041 4
30.665892 27.252908 4
31.69322 28.571883 4
30.88497 1.6792663 4
31.334981 1.5240172 4
32.003427 3.0756848 4
31.979886 4.2070135 4
31.980583 5.3306756 4
31.980299 6.4526655 4
31.980502 7.5754553 4
31.980262 8.6975293 4
31.980362 9.8201526 4
31.98046 10.942762 4
31.980832 12.065828 4
31.978014 13.183761 4
31.978282 14.30665 4
31.977161 15.42732 4
31.977233 16.549896 4
32.002211 17.715398 4
32.002172 18.837789 4
32.002317 19.960553 4
32.00233 21.083039 4
31.998558 22.198294 4
31.998621 23.32086 4
31.998555 24.443219 4
31.997659 25.564081 4
31.987123 26.664873 4
30.951258 27.594515 4
33.332599 -0.35871692 4
31.994864 2.5982126 4
31.931093 3.4677515 4
31.928952 4.5716329 4
31.928925 5.6937543 4
31.92893 6.8162933 4
31.928928 7.9387206 4
31.928931 9.0612247 4
31.92893 10.18367 4
31.928931 11.306138 4
31.928927 12.428531 4
31.928964 13.551528 4
31.928959 14.67394 4
31.928981 15.796641 4
31.928981 16.919081 4
31.933031 18.046187 4
31.932995 19.168567 4
31.933196 20.291387 4
31.93321 21.413879 4
31.930521 22.531828 4
31.93054 23.654338 4
31.930521 24.776752 4
31.930238 25.898756 4
31.930139 27.031933 4
32.205832 28.67935 4
33.032636 1.8555169 4
33.32683 1.982412 4
33.094841 3.1965268 4
33.078956 4.3488825 4
33.07868 5.4719577 4
33.078737 6.5942856 4
33.078709 7.7168143 4
33.078743 8.8391962 4
33.078729 9.9616903 4
33.078729 11.084152 4
33.078673 12.206746 4
33.079086 13.328245 4
33.079049 14.450795 4
33.07922 15.57286 4
33.079207 16.695353 4
33.075199 17.827785 4
33.075198 18.950247 4
33.075137 20.072864 4
33.075135 21.19533 4
33.076433 22.314566 4
33.076433 23.437028 4
33.076432 24.559491 4
33.076627 25.681476 4
33.089557 26.778093 4
33.086141 27.580629 4
33.267798 0.94912889 4
33.61431 2.6043465 4
33.532421 3.4677277 4
33.550439 4.5732228 4
33.550754 5.695349 4
33.550687 6.8178748 4
33.550721 7.9403052 4
33.55068 9.0628053 4
33.550696 10.185252 4
33.550696 11.307714 4
33.550762 12.430114 4
33.550278 13.553032 4
33.550318 14.675453 4
33.550122 15.798103 4
33.550133 16.92055 4
33.554872 18.038681 4
33.554871 19.161142 4
33.554943 20.283529 4
33.554945 21.40599 4
33.553434 22.530007 4
33.553434 23.652469 4
33.553434 24.774931 4
33.553206 25.897622 4
33.538593 27.035208 4
33.256701 28.144838 4
34.491701 1.4739546 4
34.381279 2.1773798 4
34.375874 3.3538384 4
34.37577 4.4797065 4
34.375769 5.6022133 4
34.375769 6.7246754 4
34.375769 7.8471374 4
34.375769 8.9695995 4
34.375769 10.092062 4
34.375769 11.214524 4
34.375769 12.336986 4
34.375769 13.459448 4
34.375769 14.58191 4
34.375769 15.704372 4
34.375769 16.826834 4
34.375781 17.948856 4
34.375781 19.071318 4
34.375781 20.19378 4
34.375781 21.316242 4
34.375781 22.438704 4
34.375781 23.561166 4
34.375781 24.683628 4
34.375781 25.806091 4
34.375878 26.925432 4
34.397267 27.933943 4
35.172531 0.90161479 4
35.294745 2.289502 4
34.910363 3.3746553 4
34.910453 4.4952934 4
34.910454 5.6177315 4
34.910454 6.7401936 4
34.910454 7.8626556 4
34.910454 8.9851177 4
34.910454 10.10758 4
34.910454 11.230042 4
34.910454 12.352504 4
34.910454 13.474966 4
34.910454 14.597428 4
34.910454 15.71989 4
34.910454 16.842352 4
34.91044 17.96505 4
34.91044 19.087512 4
34.91044 20.209974 4
34.91044 21.332436 4
34.91044 22.454898 4
34.91044 23.57736 4
34.91044 24.699822 4
34.91044 25.822284 4
34.910324 26.946414 4
34.884846 28.126956 4
35.702127 1.1233114 4
35.702057 2.2449351 4
35.702155 3.3673855 4
35.702155 4.4898482 4
35.702155 5.6123102 4
35.702155 6.7347723 4
35.702155 7.8572343 4
35.702155 8.9796964 4
35.702155 10.102158 4
35.702155 11.22462 4
35.702155 12.347083 4
35.702155 13.469545 4
35.702155 14.592007 4
35.702155 15.714469 4
35.702155 16.836931 4
35.702155 17.959393 4
35.702155 19.081855 4
35.702155 20.204317 4
35.702155 21.326779 4
35.702155 22.449241 4
35.702155 23.571703 4
35.702155 24.694165 4
35.702155 25.816627 4
35.702155 26.939084 4
35.702156 28.060696 4
36.82462 1.1233168 4
36.82462 2.2449293 4
36.82462 3.3673861 4
36.82462 4.4898482 4
36.82462 5.6123102 4
36.82462 6.7347723 4
36.82462 7.8572343 4
36.82462 8.9796964 4
36.82462 10.102158 4
36.82462 11.22462 4
36.82462 12.347083 4
36.82462 13.469545 4
36.82462 14.592007 4
36.82462 15.714469 4
36.82462 16.836931 4
36.82462 17.959393 4
36.82462 19.081855 4
36.82462 20.204317 4
36.82462 21.326779 4
36.82462 22.449241 4
36.82462 23.571703 4
36.82462 24.694165 4
36.82462 25.816627 4
36.82462 26.939084 4
36.82462 28.060696 4
37.947083 1.1233168 4
37.947083 2.2449293 4
37.947083 3.3673861 4
37.947083 4.4898482 4
37.947083 5.6123102 4
37.947083 6.7347723 4
37.947083 7.8572343 4
37.947083 8.9796964 4
37.947083 10.102158 4
37.947083 11.22462 4
37.947083 12.347083 4
37.947083 13.469545 4
37.947083 14.592007 4
37.947083 15.714469 4
37.947083 16.836931 4
37.947083 17.959393 4
37.947083 19.081855 4
37.947083 20.204317 4
37.947083 21.326779 4
37.947083 22.449241 4
37.947083 23.571703 4
37.947083 24.694165 4
37.947083 25.816627 4
37.947083 26.939084 4
37.947083 28.060696 4
39.069545 1.1233168 4
39.069545 2.2449293 4
39.069545 3.3673861 4
39.069545 4.4898482 4
39.069545 5.6123102 4
39.069545 6.7347723 4
39.069545 7.8572343 4
39.069545 8.9796964 4
39.069545 10.102158 4
39.069545 11.22462 4
39.069545 12.347083 4
39.069545 13.469545 4
39.069545 14.592007 4
39.069545 15.714469 4
39.069545 16.836931 4
39.069545 17.959393 4
39.069545 19.081855 4
39.069545 20.204317 4
39.069545 21.326779 4
39.069545 22.449241 4
39.069545 23.571703 4
39.069545 24.694165 4
39.069545 25.816627 4
39.069545 26.939084 4
39.069545 28.060696 4
40.192007 1.1233168 4
40.192007 2.2449293 4
40.192007 3.3673861 4
40.192007 4.4898482 4
40.192007 5.6123102 4
40.192007 6.7347723 4
40.192007 7.8572343 4
40.192007 8.9796964 4
40.192007 10.102158 4
40.192007 11.22462 4
40.192007 12.347083 4
40.192007 13.469545 4
40.192007 14.592007 4
40.192007 15.714469 4
40.192007 16.836931 4
40.192007 17.959393 4
40.192007 19.081855 4
40.192007 20.204317 4
40.192007 21.326779 4
40.192007 22.449241 4
40.192007 23.571703 4
40.192007 24.694165 4
40.192007 25.816627 4
40.192007 26.939084 4
40.192007 28.060696 4
41.314469 1.1233168 4
41.314469 2.2449293 4
41.314469 3.3673861 4
41.314469 4.4898482 4
41.314469 5.6123102 4
41.314469 6.7347723 4
41.314469 7.8572343 4
41.314469 8.9796964 4
41.314469 10.102158 4
41.314469 11.22462 4
41.314469 12.347083 4
41.314469 13.469545 4
41.314469 14.592007 4
41.314469 15.714469 4
41.314469 16.836931 4
41.314469 17.959393 4
41.314469 19.081855 4
41.314469 20.204317 4
41.314469 21.326779 4
41.314469 22.449241 4
41.314469 23.571703 4
41.314469 24.694165 4
41.314469 25.816627 4
41.314469 26.939084 4
41.314469 28.060696 4
42.436931 1.1233168 4
42.436931 2.2449293 4
42.436931 3.3673861 4
42.436931 4.4898482 4
42.436931 5.6123102 4
42.436931 6.7347723 4
42.436931 7.8572343 4
42.436931 8.9796964 4
42.436931 10.102158 4
42.436931 11.22462 4
42.436931 12.347083 4
42.436931 13.469545 4
42.436931 14.592007 4
42.436931 15.714469 4
42.436931 16.836931 4
42.436931 17.959393 4
42.436931 19.081855 4
42.436931 20.204317 4
42.436931 21.326779 4
42.436931 22.449241 4
42.436931 23.571703 4
42.436931 24.694165 4
42.436931 25.816627 4
42.436931 26.939084 4
42.436931 28.060696 4
43.559393 1.1233168 4
43.559393 2.2449293 4
43.559393 3.3673861 4
43.559393 4.4898482 4
43.559393 5.6123102 4
43.559393 6.7347723 4
43.559393 7.8572343 4
43.559393 8.9796964 4
43.559393 10.102158 4
43.559393 11.22462 4
43.559393 12.347083 4
43.559393 13.469545 4
43.559393 14.592007 4
43.559393 15.714469 4
43.559393 16.836931 4
43.559393 17.959393 4
43.559393 19.081855 4
43.559393 20.204317 4
43.559393 21.326779 4
43.559393 22.449241 4
43.559393 23.571703 4
43.559393 24.694165 4
43.559393 25.816627 4
43.559393 26.939084 4
43.559393 28.060696 4
44.681855 1.1233168 4
44.681855 2.2449293 4
44.681855 3.3673861 4
44.681855 4.4898482 4
44.681855 5.6123102 4
44.681855 6.7347723 4
44.681855 7.8572343 4
44.681855 8.9796964 4
44.681855 10.102158 4
44.681855 11.22462 4
44.681855 12.347083 4
44.681855 13.469545 4
44.681855 14.592007 4
44.681855 15.714469 4
44.681855 16.836931 4
44.681855 17.959393 4
44.681855 19.081855 4
44.681855 20.204317 4
44.681855 21.326779 4
44.681855 22.449241 4
44.681855 23.571703 4
44.681855 24.694165 4
44.681855 25.816627 4
44.681855 26.939084 4
44.681855 28.060696 4
45.804317 1.1233168 4
45.804317 2.2449293 4
45.804317 3.3673861 4
45.804317 4.4898482 4
45.804317 5.6123102 4
45.804317 6.7347723 4
45.804317 7.8572343 4
45.804317 8.9796964 4
45.804317 10.102158 4
45.804317 11.22462 4
45.804317 12.347083 4
45.804317 13.469545 4
45.804317 14.592007 4
45.804317 15.714469 4
45.804317 16.836931 4
45.804317 17.959393 4
45.804317 19.081855 4
45.804317 20.204317 4
45.804317 21.326779 4
45.804317 22.449241 4
45.804317 23.571703 4
45.804317 24.694165 4
45.804317 25.816627 4
45.804317 26.939084 4
45.804317 28.060696 4
46.92678 1.1233168 4
46.926779 2.2449293 4
46.926779 3.3673862 4
[...]
POINT_DATA 1250
SCALARS m double
LOOKUP_TABLE default
1
1
1
1
1
1
1
1
1
1
1
1
1
1
1
1
1
1
1
1
1
1
1
1
1
1
1
1
1
1
1
1
1
1
1
1
1
1
1
1
1
1
1
1
1
1
1
1
1
1
1
1
1
1
1
1
1
1
1
1
1
1
1
1
1
1
1
1
1
1
1
1
1
1
1
1
1
1
1
1
1
1
1
1
1
1
1
1
1
1
1
1
1
1
1
1
1
1
1
1
1
1
1
1
1
1
1
1
1
1
1
1
1
1
1
1
1
1
1
1
1
1
1
1
1
1
1
1
1
1
1
1
1
1
1
1
1
1
1
1
1
1
1
1
1
1
1
1
1
1
1
1
1
1
1
1
1
1
1
1
1
1
1
1
1
1
1
1
1
1
1
1
1
1
1
1
1
1
1
1
1
1
1
1
1
1
1
1
1
1
1
1
1
1
1
1
1
1
1
1
1
1
1
1
1
1
1
1
1
1
1
1
1
1
1
1
1
1
1
1
1
1
1
1
1
1
1
1
1
1
1
1
1
1
1
1
1
1
1
1
1
1
1
1
1
1
1
1
1
1
1
1
1
1
1
1
1
1
1
1
1
1
1
1
1
1
1
1
1
1
1
1
1
1
1
1
1
1
1
1
1
1
1
1
1
1
1
1
1
1
1
1
1
1
1
1
1
1
1
1
1
1
1
1
1
1
1
1
1
1
1
1
1
1
1
1
1
1
1
1
1
1
1
1
1
1
1
1
1
1
1
1
1
1
1
1
1
1
1
1
1
1
1
1
1
1
1
1
1
1
1
1
1
1
1
1
1
1
1
1
1
1
1
1
1
1
1
1
1
1
1
1
1
1
1
1
1
1
1
1
1
1
1
1
1
1
1
1
1
1
1
1
1
1
1
1
1
1
1
1
1
1
1
1
1
1
1
1
1
1
1
1
1
1
1
1
1
1
1
1
1
1
1
1
1
1
1
1
1
1
1
1
1
1
1
1
1
1
1
1
1
1
1
1
1
1
1
1
1
1
1
1
1
1
1
1
1
1
1
1
1
1
1
1
1
1
1
1
1
1
1
1
1
1
1
1
1
1
1
1
1
1
1
1
1
1
1
1
1
1
1
1
1
1
1
1
1
1
1
1
1
1
1
1
1
1
1
1
1
1
1
1
1
1
1
1
1
1
1
1
1
1
1
1
1
1
1
1
1
1
1
1
1
1
1
1
1
1
1
1
1
1
1
1
1
1
1
1
1
1
1
1
1
1
1
1
1
1
1
1
1
1
1
1
1
1
1
1
1
1
1
1
1
1
1
1
1
1
1
1
1
1
1
1
1
1
1
1
1
1
1
1
1
1
1
1
1
1
1
1
1
1
1
1
1
1
1
1
1
1
1
1
1
1
1
1
1
1
1
1
1
1
1
1
1
1
1
1
1
1
1
1
1
1
1
1
1
1
1
1
1
1
1
1
1
1
1
1
1
1
1
1
1
1
1
1
1
1
1
1
1
1
1
1
1
1
1
1
1
1
1
1
1
1
1
1
1
1
1
1
1
1
1
1
1
1
1
1
1
1
1
1
1
1
1
1
1
1
1
1
1
1
1
1
1
1
1
1
1
1
1
1
1
1
1
1
1
1
1
1
1
1
1
1
1
1
1
1
1
1
1
1
1
1
1
1
1
1
1
1
1
1
1
1
1
1
1
1
1
1
1
1
1
1
1
1
1
1
1
1
1
1
1
1
1
1
1
1
1
1
1
1
1
1
1
1
1
1
1
1
1
1
1
1
1
1
1
1
1
1
1
1
1
1
1
1
1
1
1
1
1
1
1
1
1
1
1
1
1
1
1
1
1
1
1
1
1
1
1
1
1
1
1
1
1
1
1
1
1
1
1
1
1
1
1
1
1
1
1
1
1
1
1
1
1
1
1
1
1
1
1
1
1
1
1
1
1
1
1
1
1
1
1
1
1
1
1
1
1
1
1
1
1
1
1
1
1
1
1
1
1
1
1
1
1
1
1
1
1
1
1
1
1
1
1
1
1
1
1
1
1
1
1
1
1
1
1
1
1
1
1
1
1
1
1
1
1
1
1
1
1
1
1
1
1
1
1
1
1
1
1
1
1
1
1
1
1
1
1
1
1
1
1
1
1
1
1
1
1
1
1
1
1
1
1
1
1
1
1
1
1
1
1
1
1
1
1
1
1
1
1
1
1
1
1
1
1
1
1
1
1
1
1
1
1
1
1
1
1
1
1
1
1
1
1
1
1
1
1
1
1
1
1
1
1
1
1
1
1
1
1
1
1
1
1
1
1
1
1
1
1
1
1
1
1
1
1
1
1
1
1
1
1
1
1
1
1
1
1
1
1
1
1
1
1
1
1
1
1
1
1
1
1
1
1
1
1
1
1
1
1
1
1
1
1
1
1
1
1
1
1
1
1
1
1
1
1
1
1
1
1
1
1
1
1
1
1
1
1
1
1
1
1
1
1
1
1
1
1
1
1
1
1
1
1
1
1
1
1
1
1
1
1
1
1
1
1
1
1
1
1
1
1
1
1
1
1
1
1
1
1
1
1
1
1
1
1
1
1
1
1
1
1
1
1
1
1
1
1
1
1
1
1
1
1
1
1
1
1
1
1
1
1
1
1
1
1
1
1
1
1
1
1
1
1
1
1
1
1
1
1
1
1
1
1
1
1
1
1
1
1
1
1
1
1
1
1
1
1
1
1
1
1
1
1
1
1
1
1
1
1
1
1
1
1
1
1
1
1
1
1
1
1
1
1
1
1
1
1
1
1
1
1
1
1
1
1
1
1
1
1
1
1
1
1
1
1
1
1
1
VECTORS v double
-5.7561316 9.5305987 0
-9.308293 -3.1904278 0
7.4571958 -6.7748542 0
6.9033353 -7.2842831 0
6.9298693 -7.2645657 0
6.9170345 -7.2768023 0
6.9331447 -7.2622036 0
6.91444 -7.2791783 0
6.9226673 -7.2717661 0
6.9400511 -7.2566623 0
6.9670747 -7.2317307 0
6.7543554 -7.4216821 0
6.7753962 -7.4028543 0
6.6962109 -7.4712297 0
6.7005725 -7.4671222 0
8.5289005 -5.3024784 0
8.5181458 -5.2996028 0
8.5412286 -5.2630528 0
8.5442507 -5.258128 0
8.1781486 -5.8082434 0
8.1923657 -5.7941306 0
8.1792236 -5.8115511 0
8.0955827 -5.9256941 0
8.112835 -5.9426078 0
8.4943451 -6.712622 0
8.8417799 -9.0869808 0
1.7541102 10.32444 0
-8.7138677 5.2213599 0
-8.9199322 4.8613511 0
-8.9304256 4.8398973 0
-8.9260893 4.8488676 0
-8.9292358 4.8423484 0
-8.9256263 4.8499516 0
-8.9269704 4.8469309 0
-8.9281753 4.843972 0
-8.935284 4.8306255 0
-8.8934682 4.9175718 0
-8.8978491 4.908577 0
-8.8811951 4.9423069 0
-8.8604005 4.9251814 0
-9.3021783 3.8752725 0
-9.3008947 3.8784164 0
-9.306426 3.8634764 0
-9.3085801 3.8671015 0
-9.2072527 4.1328188 0
-9.2085966 4.1297025 0
-9.2079581 4.1343059 0
-9.1900234 4.1812209 0
-8.9870459 4.5677393 0
7.4818514 6.8332825 0
-9.3632803 3.9804826 0
-2.4956432 -9.854261 0
11.558617 -3.3867948 0
8.9414555 -4.287961 0
8.9502246 -4.2764676 0
8.9466062 -4.2811289 0
8.9492216 -4.2777393 0
8.9461279 -4.2817513 0
8.9474214 -4.2800691 0
8.94871 -4.2783895 0
8.9534602 -4.2722864 0
8.9164424 -4.3218744 0
8.9200615 -4.3168426 0
8.9048165 -4.3382529 0
8.9058003 -4.336924 0
8.8803742 -4.9724183 0
8.8826532 -4.9660095 0
8.8682917 -5.0052835 0
8.8673459 -5.0078684 0
9.0413978 -4.4424393 0
9.0407985 -4.445749 0
9.0413754 -4.4424516 0
9.0535694 -4.3822224 0
9.0488213 -4.123154 0
-7.6271969 -6.4748045 0
3.9469203 -13.879626 0
-9.1214775 4.5825565 0
-9.996058 1.2971338 0
-10.012749 1.0909434 0
-10.011401 1.0935611 0
-10.011988 1.0918659 0
-10.011577 1.0932119 0
-10.012063 1.0916358 0
-10.011863 1.0922885 0
-10.011667 1.0930916 0
-10.01089 1.0956628 0
-10.015648 1.0807678 0
-10.015309 1.0818338 0
-10.016603 1.0781704 0
-10.016436 1.0778996 0
-9.5545226 2.4803012 0
-9.557897 2.471415 0
-9.5383248 2.5212672 0
-9.5369953 2.5248115 0
-9.8081667 1.7713892 0
-9.8063553 1.7771867 0
-9.8081566 1.7714498 0
-9.838074 1.6783215 0
-9.9944128 1.2444381 0
-5.6987774 8.8677153 0
-6.7372408 -2.3617104 0
1.7004889 -5.143056 0
-7.6190932 -7.0698558 0
-8.4615991 -5.8227928 0
-8.4761172 -5.7975095 0
-8.4730881 -5.8029012 0
-8.4745931 -5.8002233 0
-8.4727823 -5.8034449 0
-8.4735063 -5.8021571 0
-8.4735059 -5.8021579 0
-8.4764828 -5.7968583 0
-8.454661 -5.8355524 0
-8.4566255 -5.8320783 0
-8.4476096 -5.8479818 0
-8.448287 -5.8467947 0
-8.6596631 -5.4526632 0
-8.6596737 -5.4526525 0
-8.6629035 -5.4464203 0
-8.6629877 -5.4462562 0
-8.594835 -5.5758697 0
-8.594833 -5.5758702 0
-8.5948466 -5.575845 0
-8.5845917 -5.595 0
-7.9028233 -6.6755779 0
5.5715388 -7.5960564 0
-9.8418934 -2.0399014 0
5.8394379 14.928824 0
7.5303542 5.9446433 0
8.4043818 4.9039761 0
8.4194925 4.8831313 0
8.4163202 4.8873904 0
8.4178958 4.8852751 0
8.4159993 4.88782 0
8.4167577 4.8868027 0
8.416757 4.8868032 0
8.419874 4.882618 0
8.3970172 4.913179 0
8.3990678 4.9104412 0
8.3896324 4.9229931 0
8.3903392 4.9220353 0
8.612488 4.6187366 0
8.6124946 4.6187216 0
8.6158733 4.6137761 0
8.6159598 4.6136509 0
8.5446493 4.7164268 0
8.544648 4.7164288 0
8.5446616 4.7164088 0
8.5339152 4.7316207 0
7.8259158 5.644178 0
-9.9546129 1.1732201 0
-6.8434936 8.3999112 0
-9.8972605 -1.6206555 0
-9.9938269 -0.54500584 0
-9.999153 -0.4081115 0
-9.9992136 -0.4063137 0
-9.9992135 -0.40631363 0
-9.9992136 -0.40631361 0
-9.9992135 -0.40631364 0
-9.9992135 -0.40631363 0
-9.9992135 -0.40631364 0
-9.9992137 -0.40631372 0
-9.9992125 -0.40631238 0
-9.9992123 -0.40632089 0
-9.9992121 -0.4063116 0
-9.9992124 -0.40630297 0
-9.9986263 -0.42402499 0
-9.9986263 -0.42402422 0
-9.9986265 -0.42402421 0
-9.9986265 -0.42402422 0
-9.9986227 -0.42402165 0
-9.9986227 -0.42402159 0
-9.9986228 -0.42401972 0
-9.9986236 -0.42399851 0
-9.9936341 -0.54935267 0
-8.8862554 -5.1107758 0
7.8807414 -6.7188612 0
11.115883 1.3193444 0
9.9965331 0.44436777 0
10.001856 0.33273722 0
10.001917 0.33127027 0
10.001917 0.33127017 0
10.001917 0.33127015 0
10.001917 0.33127017 0
10.001917 0.33127017 0
10.001917 0.33127017 0
10.001917 0.33127023 0
10.001917 0.33126912 0
10.001917 0.33127608 0
10.001917 0.33126848 0
10.001918 0.33126189 0
10.001286 0.34570838 0
10.001286 0.34570794 0
10.001286 0.34570793 0
10.001286 0.34570791 0
10.001286 0.34570581 0
10.001286 0.3457058 0
10.001286 0.34570425 0
10.001287 0.34569038 0
9.9960412 0.44796006 0
8.8287344 4.1311534 0
-10.004826 0.0025245789 0
-10.024747 0.0020645002 0
-10.000512 -5.7346409e-05 0
-10.000483 8.1943494e-07 0
-10.000483 1.7649773e-06 0
-10.000483 1.7666626e-06 0
-10.000483 1.766682e-06 0
-10.000483 1.7666839e-06 0
-10.000483 1.7666888e-06 0
-10.000483 1.7666938e-06 0
-10.000483 1.7666269e-06 0
-10.000483 1.7666803e-06 0
-10.000483 1.7667826e-06 0
-10.000483 1.7665857e-06 0
-10.000483 1.7623238e-06 0
-10.000483 1.8489359e-06 0
-10.000483 1.8315725e-06 0
-10.000483 1.831394e-06 0
-10.000483 1.8311934e-06 0
-10.000483 1.8314324e-06 0
-10.000483 1.8439851e-06 0
-10.000483 1.84284e-06 0
-10.000483 1.8480544e-06 0
-10.000482 -1.9917513e-05 0
-10.000391 -0.0038849748 0
-10.000008 0.0038895289 0
-10.000011 1.9924051e-05 0
-10.000005 -1.3045035e-06 0
-10.000003 -8.2178265e-10 0
-10.000003 -4.9271594e-10 0
-10.000003 -4.9024478e-10 0
-10.000003 -4.902452e-10 0
-10.000003 -4.9024622e-10 0
-10.000003 -4.9024262e-10 0
-10.000003 -4.9024777e-10 0
-10.000003 -4.9024057e-10 0
-10.000003 -4.9026492e-10 0
-10.000003 -4.902172e-10 0
-10.000003 -4.9023522e-10 0
-10.000003 -5.3921526e-10 0
-10.000003 -4.8367562e-10 0
-10.000003 -5.1198666e-10 0
-10.000003 -5.1171614e-10 0
-10.000003 -5.1170662e-10 0
-10.000003 -5.1171208e-10 0
-10.000003 -5.1189998e-10 0
-10.000003 -3.9198362e-10 0
-10.000003 6.4087917e-08 0
-10.000003 -2.0478849e-05 0
-10.000002 -0.003888816 0
-10 0.0038884773 0
-10 2.0452168e-05 0
-10 -6.4956036e-08 0
-10 -1.281578e-10 0
-10 -8.8862825e-12 0
-10 5.5160385e-15 0
-10 7.6608793e-17 0
-10 -1.0535273e-15 0
-10 2.6654132e-15 0
-10 -2.1902626e-15 0
-10 1.8699553e-17 0
-10 2.231744e-15 0
-10 -3.2364428e-13 0
-10 -3.2150213e-13 0
-10 1.062947e-16 0
-10 2.3760002e-15 0
-9.9999999 -2.2758204e-15 0
-9.9999999 5.1624341e-17 0
-9.9999999 3.6356646e-16 0
-9.9999999 1.9741288e-15 0
-9.9999999 -1.9483716e-13 0
-9.9999999 1.1968503e-10 0
-9.9999999 6.4956418e-08 0
-9.9999999 -2.0452168e-05 0
-9.9999999 -0.0038884773 0
-9.9999999 0.0038884773 0
-9.9999999 2.0452168e-05 0
-9.9999999 -6.4956416e-08 0
-9.9999999 -1.1968547e-10 0
-9.9999998 1.9297068e-13 0
-9.9999998 2.4667022e-16 0
-9.9999998 -4.5025855e-18 0
-9.9999998 -1.1028935e-15 0
-9.9999998 2.8083689e-15 0
-9.9999998 -2.0455831e-15 0
-9.9999998 -2.7168929e-17 0
-9.9999998 2.1781305e-15 0
-9.9999998 -2.233329e-15 0
-9.9999997 -9.6761122e-17 0
-9.9999997 4.5793047e-17 0
-9.9999997 2.6882547e-13 0
-9.9999997 2.6703816e-13 0
-9.9999997 3.1443823e-15 0
-9.9999997 -1.6336276e-12 0
-9.9999997 2.714164e-13 0
-9.9999997 1.7088679e-12 0
-9.9999997 1.1968497e-10 0
-9.9999997 6.4956416e-08 0
-9.9999997 -2.0452168e-05 0
-9.9999997 -0.0038884773 0
-9.9999997 0.0038884773 0
-9.9999997 2.0452161e-05 0
-9.9999997 -6.4965516e-08 0
-9.9999997 -1.1249048e-10 0
-9.9999997 9.2730428e-12 0
-9.9999997 -5.099923e-15 0
-9.9999997 -2.2201675e-17 0
-9.9999997 -1.0365606e-15 0
-9.9999997 -1.6345044e-12 0
-9.9999997 -1.6393315e-12 0
-9.9999997 7.73522e-16 0
-9.9999997 2.9238821e-15 0
-9.9999997 3.1927106e-13 0
-9.9999997 3.2137614e-13 0
-9.9999997 5.259108e-17 0
-9.9999997 4.3852677e-15 0
-9.9999997 -6.4830753e-12 0
-9.9999997 -6.4784451e-12 0
-9.9999997 -9.0540464e-12 0
-9.9999996 -9.0525436e-12 0
-9.9999998 -1.9053835e-13 0
-9.9999998 1.1968504e-10 0
-9.9999998 6.4956415e-08 0
-9.9999998 -2.0452168e-05 0
-9.9999998 -0.0038884773 0
-9.9999998 0.0038884773 0
-9.9999998 2.0452171e-05 0
-9.9999997 -6.4953244e-08 0
-9.9999996 -1.1969177e-10 0
-9.9999996 1.8763145e-13 0
-9.9999996 -7.1039315e-18 0
-9.9999996 1.1700701e-15 0
-9.9999996 4.6498868e-16 0
-9.9999996 3.0637676e-15 0
-9.9999996 -1.722548e-15 0
-9.9999996 -3.2255428e-12 0
-9.9999996 -3.2231489e-12 0
-9.9999996 -1.527008e-15 0
-9.9999996 -6.8087535e-17 0
-9.9999996 8.9127986e-17 0
-9.9999996 2.4159098e-15 0
-9.9999996 -1.2751313e-15 0
-9.9999995 1.09075e-15 0
-9.9999995 1.6382598e-12 0
-9.9999994 -5.281351e-12 0
-9.9999994 -7.1156376e-12 0
-9.9999994 1.1968624e-10 0
-9.9999994 6.4956416e-08 0
-9.9999994 -2.0452168e-05 0
-9.9999994 -0.0038884773 0
-9.9999994 0.0038884773 0
-9.9999994 2.0452175e-05 0
-9.9999994 -6.4947323e-08 0
-9.9999994 -1.200062e-10 0
-9.9999994 -2.0122105e-12 0
-9.9999994 1.3920761e-15 0
-9.9999994 -4.0866458e-12 0
-9.9999994 -6.3091517e-12 0
-9.9999994 -1.1294223e-12 0
-9.9999994 1.0866949e-12 0
-9.9999994 2.1429671e-18 0
-9.9999993 -1.5979336e-12 0
-9.9999993 -1.6021197e-12 0
-9.9999993 3.858441e-15 0
-9.9999993 7.9289915e-15 0
-9.9999993 -5.5258831e-14 0
-9.9999993 2.3290344e-12 0
-9.9999993 2.3906897e-12 0
-9.9999993 9.055871e-12 0
-9.9999993 9.0582097e-12 0
-9.9999993 -1.9680602e-13 0
-9.9999993 1.1968494e-10 0
-9.9999993 6.4956418e-08 0
-9.9999993 -2.0452176e-05 0
-9.9999993 -0.0038884773 0
-9.9999993 0.0038884773 0
-9.9999993 2.0452165e-05 0
-9.9999993 -6.4959593e-08 0
-9.9999993 -1.1990853e-10 0
-9.9999991 -3.0057284e-14 0
-9.9999991 1.2845261e-15 0
-9.9999991 1.042657e-15 0
-9.9999991 -1.0911738e-15 0
-9.999999 2.2746566e-15 0
-9.9999991 -3.0526247e-15 0
-9.9999991 3.2254881e-12 0
-9.9999991 3.2124561e-12 0
-9.999999 -1.4835563e-14 0
-9.999999 -7.162054e-12 0
-9.999999 -1.5220496e-11 0
-9.999999 4.3364106e-12 0
-9.999999 1.241163e-11 0
-9.9999989 2.6161695e-14 0
-9.9999989 2.933946e-14 0
-9.9999989 5.0541824e-12 0
-9.9999989 4.8612109e-12 0
-9.9999989 1.197183e-10 0
-9.9999989 6.4956445e-08 0
-9.9999989 -2.0452168e-05 0
-9.9999988 -0.0038884773 0
-9.9999988 0.0038884773 0
-9.9999988 2.0452168e-05 0
-9.9999988 -6.4957081e-08 0
-9.9999988 -1.1814571e-10 0
-9.9999987 2.4325265e-12 0
-9.9999987 -3.8225257e-12 0
-9.9999987 2.6495413e-13 0
-9.9999987 6.3412097e-12 0
-9.9999987 2.8053783e-12 0
-9.9999987 5.7891992e-13 0
-9.9999987 3.2470841e-14 0
-9.9999987 1.9017289e-12 0
-9.9999987 1.9042176e-12 0
-9.9999987 3.4150264e-14 0
-9.9999986 -2.3630117e-12 0
-9.9999985 -3.8607103e-12 0
-9.9999988 1.2299035e-11 0
-9.9999988 1.0585377e-11 0
-9.9999988 6.4488525e-12 0
-9.9999988 -1.6002087e-12 0
-9.9999988 -5.4054592e-12 0
-9.9999988 1.225261e-10 0
-9.9999988 6.4971145e-08 0
-9.9999988 -2.0452145e-05 0
-9.9999988 -0.0038884773 0
-9.9999988 0.0038884773 0
-9.9999988 2.0452198e-05 0
-9.9999988 -6.4949831e-08 0
-9.9999987 -1.1284495e-10 0
-9.9999987 7.0143781e-12 0
-9.9999987 5.4044301e-12 0
-9.9999987 4.2888014e-12 0
-9.9999987 4.2867323e-12 0
-9.9999987 5.4493356e-12 0
-9.9999987 5.4441577e-12 0
-9.9999987 5.4467799e-12 0
-9.9999987 5.5063354e-12 0
-9.9999987 -3.042296e-12 0
-9.9999987 1.3127245e-11 0
-9.9999987 3.0780668e-11 0
-9.9999982 -1.9401071e-10 0
-9.9999982 4.8725188e-07 0
-9.9999982 4.8723145e-07 0
-9.9999982 4.8723124e-07 0
-9.9999981 4.8723124e-07 0
-9.9999981 4.872289e-07 0
-9.999998 4.8734876e-07 0
-9.999998 5.521737e-07 0
-9.9999979 -1.9964914e-05 0
-9.9999979 -0.0038879891 0
-9.9999905 0.0038884771 0
-9.9999977 2.094156e-05 0
-9.9999977 4.2229959e-07 0
-9.9999977 4.8713189e-07 0
-9.9999977 4.8735109e-07 0
-9.9999977 4.8705595e-07 0
-9.9999977 4.870688e-07 0
-9.9999977 4.8706282e-07 0
-9.9999977 4.8706282e-07 0
-9.9999977 4.870649e-07 0
-9.9999977 4.8707412e-07 0
-9.9999977 4.8693737e-07 0
-9.9999977 4.8722063e-07 0
-9.9999976 4.8724758e-07 0
-9.9999977 4.8724561e-07 0
-9.9999977 4.8520347e-07 0
-9.9999971 9.759728e-07 0
-9.9999971 9.7394961e-07 0
-9.9999971 9.7394505e-07 0
-9.9999971 9.7395154e-07 0
-9.9999971 9.7395459e-07 0
-9.9999971 9.7406378e-07 0
-9.9999971 1.0386652e-06 0
-9.9999966 -1.8990987e-05 0
-9.9999966 -0.003887015 0
-9.9999747 0.0038884748 0
-9.9999965 2.1918001e-05 0
-9.9999965 1.3960182e-06 0
-9.9999965 1.4608469e-06 0
-9.9999966 1.463056e-06 0
-9.9999967 9.721788e-07 0
-9.9999967 9.742692e-07 0
-9.9999967 9.7428002e-07 0
-9.9999967 9.7427887e-07 0
-9.9999967 9.7428044e-07 0
-9.9999967 9.7427269e-07 0
-9.9999967 9.7173345e-07 0
-9.9999962 1.463513e-06 0
-9.9999961 1.461603e-06 0
-9.9999961 1.4615869e-06 0
-9.9999961 1.4616227e-06 0
-9.9999961 1.4619126e-06 0
-9.9999959 1.4617771e-06 0
-9.9999959 1.4617776e-06 0
-9.9999959 1.4617738e-06 0
-9.9999959 1.4617758e-06 0
-9.9999958 1.4619013e-06 0
-9.9999957 1.5266584e-06 0
-9.9999957 -1.8990247e-05 0
-9.9999957 -0.0038870132 0
-9.9999738 0.0038884743 0
-9.9999956 2.192268e-05 0
-9.9999956 1.3969695e-06 0
-9.9999956 1.4617898e-06 0
-9.9999956 1.4619275e-06 0
-9.9999956 1.4616297e-06 0
-9.9999955 1.461729e-06 0
-9.9999955 1.4617218e-06 0
-9.9999954 1.4617287e-06 0
-9.9999954 1.4617332e-06 0
-9.9999954 1.461696e-06 0
-9.9999954 1.4547034e-06 0
-9.9999897 5.8513131e-06 0
-9.9999897 5.8441609e-06 0
-9.9999897 5.8441313e-06 0
-9.9999897 5.8441424e-06 0
-9.9999897 5.8441459e-06 0
-9.9999896 5.8441421e-06 0
-9.9999896 5.8437409e-06 0
-9.9999896 5.8445989e-06 0
-9.9999895 5.8446657e-06 0
-9.9999895 5.8447834e-06 0
-9.9999895 5.9083879e-06 0
-9.9999889 -1.4119394e-05 0
-9.9999888 -0.0038821412 0
-9.9998939 0.0038884656 0
-9.9999888 2.6806542e-05 0
-9.9999888 6.2666011e-06 0
-9.9999887 6.331353e-06 0
-9.9999882 6.8185084e-06 0
-9.9999882 6.8186485e-06 0
-9.9999882 6.8186598e-06 0
-9.9999882 6.8186126e-06 0
-9.9999876 7.305755e-06 0
-9.9999876 7.3056991e-06 0
-9.9999876 7.3056994e-06 0
-9.9999876 7.305847e-06 0
-9.9999876 7.3068493e-06 0
-9.9999876 7.3063531e-06 0
-9.9999876 7.3062285e-06 0
-9.9999871 7.7935357e-06 0
-9.999987 7.7935046e-06 0
-9.999987 7.7934861e-06 0
-9.999987 7.7875001e-06 0
-9.9999843 1.0233699e-05 0
-9.9999843 1.0227709e-05 0
-9.9999837 1.022781e-05 0
-9.9999837 1.0779711e-05 0
-9.9999837 -9.7371857e-06 0
-9.9999837 -0.0038777535 0
-9.999823 0.0038884608 0
-9.9999836 3.1197889e-05 0
-9.9999831 1.0649902e-05 0
-9.9999831 1.1201863e-05 0
-9.9999831 1.12007e-05 0
-9.9999826 1.1689953e-05 0
-9.9999825 1.1688869e-05 0
-9.9999825 1.1688944e-05 0
-9.9999825 1.1688819e-05 0
-9.9999825 1.1689188e-05 0
-9.9999819 1.1689174e-05 0
-9.9999819 1.2176289e-05 0
-9.999982 1.2176245e-05 0
-9.999982 1.2176121e-05 0
-9.999982 1.217515e-05 0
-9.9999814 1.2664456e-05 0
-9.9999814 1.2663282e-05 0
-9.9999812 1.2663266e-05 0
-9.9999812 1.2663252e-05 0
-9.9999813 1.26641e-05 0
-9.9999812 1.2663518e-05 0
-9.9999812 1.2663651e-05 0
-9.9999812 1.2728785e-05 0
-9.9999812 -7.7882652e-06 0
-9.9999812 -0.0038758032 0
-9.9998124 0.003888628 0
-10.000004 3.1219486e-05 0
-10.000003 1.1626131e-05 0
-10.000003 1.2177432e-05 0
-10.000003 1.2176957e-05 0
-10.000002 1.2175844e-05 0
-10.000002 1.3151538e-05 0
-10.000001 1.3638983e-05 0
-10.000001 1.3635706e-05 0
-10 1.4613873e-05 0
-10 1.4611409e-05 0
-10 1.4611509e-05 0
-10 1.4611454e-05 0
-10 1.4609712e-05 0
-9.9999995 1.5100079e-05 0
-9.999999 1.5098183e-05 0
-9.999999 1.5585647e-05 0
-9.999999 1.5585396e-05 0
-9.999999 1.5585386e-05 0
-9.9999912 1.5585352e-05 0
-9.9999911 1.5585504e-05 0
-9.9999827 1.6071059e-05 0
-9.9999828 1.6135786e-05 0
-9.9999828 -4.4002268e-06 0
-9.9999833 -0.0038725611 0
-10.003409 0.0036728947 0
-10.003851 3.7068598e-05 0
-10.003851 1.602361e-05 0
-10.00385 1.6576949e-05 0
-10.00385 1.7063143e-05 0
-10.00385 1.7062853e-05 0
-10.00385 1.7063435e-05 0
-10.00385 1.657574e-05 0
-10.003865 1.7550204e-05 0
-10.003865 1.7551088e-05 0
-10.003864 1.7550283e-05 0
-10.003864 1.8038923e-05 0
-10.003864 1.8037933e-05 0
-10.003863 1.8526208e-05 0
-10.003863 1.8526142e-05 0
-10.003863 1.8526024e-05 0
-10.003863 1.8525962e-05 0
-10.003863 1.901413e-05 0
-10.003863 1.9014129e-05 0
-10.003863 1.9013862e-05 0
-10.003862 1.9504224e-05 0
-10.003862 1.9500914e-05 0
-10.003854 1.9562846e-05 0
-10.003854 -9.5882103e-07 0
-10.003639 -0.0036534243 0
9.2871936 -3.6719807 0
9.634117 2.3514996 0
-7.482565 6.6441845 0
-6.9159833 7.3290351 0
-6.9313972 7.2962004 0
-6.918894 7.3089005 0
-6.9346905 7.2922908 0
-6.916035 7.3108669 0
-6.9248316 7.3044106 0
-6.9426837 7.2880849 0
-6.9644189 7.2489151 0
-6.7484437 7.4515244 0
-6.7653989 7.4260851 0
-6.6848876 7.49866 0
-6.6864729 7.5053547 0
-8.5288052 5.2041543 0
-8.5219078 5.2160116 0
-8.5456252 5.1756109 0
-8.5494469 5.1730702 0
-8.1778986 5.759108 0
-8.1913179 5.7387456 0
-8.1784673 5.7609245 0
-8.0928752 5.8808963 0
-8.1074621 5.8057893 0
-8.2724206 3.8295138 0
-5.523885 -0.99360229 0
-1.4143244 0.20414604 0
9.3860679 -3.6844701 0
8.7105416 -5.2511006 0
8.7248825 -5.2143174 0
8.7218305 -5.22213 0
8.7345521 -5.2003258 0
8.7200072 -5.2254327 0
8.7266556 -5.2135347 0
8.7499238 -5.1753713 0
8.7696584 -5.1418322 0
8.6020811 -5.4161669 0
8.6151492 -5.3826503 0
8.5553521 -5.4723315 0
8.556561 -5.466134 0
9.6121617 -3.0319607 0
9.6009911 -3.0239202 0
9.6152643 -2.9761124 0
9.6178653 -2.9670267 0
9.4292236 -3.5570853 0
9.4453902 -3.5191927 0
9.430338 -3.5612566 0
9.3730603 -3.7216208 0
9.5323205 -3.2609225 0
0.0018322984 9.8948027 0
8.0215741 -4.198268 0
6.1514726 6.4964257 0
-6.2730865 8.7480134 0
-8.7385712 4.6115179 0
-8.7528724 4.5876588 0
-8.7492227 4.5932725 0
-8.762455 4.5711588 0
-8.7472796 4.5965156 0
-8.7543197 4.5846813 0
-8.7783762 4.543694 0
-8.7984312 4.5107059 0
-8.6243147 4.8001893 0
-8.6418396 4.7713533 0
-8.5808049 4.8707853 0
-8.5838075 4.8662388 0