# vtk DataFile Version 4.0
hesp visualization file
ASCII
DATASET UNSTRUCTURED_GRID
POINTS 1250 double
27.777365 -1.6141184 4
28.900662 -0.89550614 4
31.622957 3.2074186 4
28.173593 8.3253728 4
30.17746 4.0745174 4
33.657051 6.669141 4
34.359812 1.3448975 4
34.666758 10.81319 4
30.888606 9.5874878 4
27.74156 8.8440232 4
34.572941 11.243955 4
28.351347 12.407719 4
30.395339 13.509273 4
33.11223 13.486327 4
27.686205 18.328075 4
33.588169 15.520797 4
27.423779 23.142999 4
30.862024 22.811571 4
29.279455 21.282582 4
30.677968 25.481165 4
29.407087 23.233541 4
32.865435 24.935337 4
30.689234 23.461053 4
30.665242 34.481543 4
29.92272 32.478521 4
37.937611 -6.2226718 4
28.369478 1.7499203 4
28.044869 -3.0539143 4
28.64718 5.1387381 4
29.428055 4.7036794 4
29.673416 3.7551082 4
28.576885 2.0728462 4
26.703895 6.2512321 4
30.10187 7.2550535 4
26.589139 9.0558118 4
29.710083 11.125752 4
30.212741 10.271735 4
28.907111 16.287094 4
26.487811 13.828909 4
32.568805 13.660131 4
28.561693 22.611464 4
28.362237 15.885089 4
26.760707 19.967346 4
32.568746 18.979956 4
32.682802 21.099881 4
31.054627 28.276202 4
31.715725 21.372045 4
27.167628 29.638346 4
29.641679 34.59922 4
32.228188 29.888415 4
26.649459 0.20709714 4
29.694275 -5.2370413 4
30.61056 1.3859715 4
32.774765 6.1293105 4
32.518999 -0.65733308 4
33.930231 3.2548396 4
30.657606 1.867253 4
30.989634 9.1563611 4
31.317164 10.322366 4
34.176436 11.514582 4
31.585436 10.077212 4
29.896385 10.818522 4
31.84624 11.618478 4
33.062829 11.121343 4
32.238327 11.779448 4
31.759377 13.655156 4
29.278042 17.466445 4
33.846073 19.139675 4
31.024475 16.116971 4
28.730286 24.991574 4
27.638399 18.957162 4
33.489773 21.732238 4
29.793415 21.08436 4
32.956304 28.837249 4
31.31717 26.502868 4
36.055817 -9.9354641 4
31.748866 -1.0888848 4
32.249452 5.5048689 4
32.512695 -0.35734922 4
27.252141 6.7296038 4
30.611674 9.132419 4
28.37453 9.7349657 4
31.306577 11.750737 4
28.326872 11.148347 4
33.566958 11.950875 4
29.608582 15.227501 4
32.424675 10.067618 4
30.082177 14.983579 4
30.798759 18.701182 4
31.661468 15.260625 4
32.165001 15.378071 4
28.771982 17.778795 4
33.570148 15.099842 4
30.751936 19.049999 4
31.779457 19.608502 4
34.237688 18.485847 4
31.442887 22.068648 4
29.287027 24.129508 4
29.012347 25.890073 4
32.372979 38.53503 4
33.852278 -5.3610335 4
30.201089 -4.54592 4
36.07708 4.1797664 4
33.687838 7.2934035 4
27.984202 -0.077110654 4
32.501011 8.5596219 4
32.779122 5.6976867 4
31.161772 5.1521162 4
32.044839 6.9161769 4
32.260169 8.3044099 4
33.550121 7.8158088 4
32.830459 9.1508209 4
34.788947 11.805756 4
34.141908 11.143755 4
33.410721 13.840638 4
34.594647 17.567523 4
33.134164 17.323853 4
31.618299 19.917983 4
30.265811 18.399217 4
35.897357 19.42074 4
33.916481 24.191654 4
32.29071 21.498766 4
36.235029 22.407047 4
33.550211 25.867526 4
31.722013 27.782427 4
29.314726 -4.7801009 4
27.672601 -0.099042547 4
34.568076 6.850003 4
36.213417 6.8141594 4
33.968229 4.2833147 4
31.126315 9.8347548 4
34.127112 9.7199832 4
35.71012 10.231162 4
34.826394 11.36877 4
33.858248 15.052852 4
34.696119 15.726206 4
36.124011 14.935921 4
32.836888 17.637867 4
36.809613 17.382142 4
30.992526 16.906028 4
32.965276 22.89866 4
33.687504 19.805525 4
33.729978 22.151289 4
34.179374 23.540375 4
34.536763 25.543462 4
31.669772 28.555017 4
32.002716 22.083816 4
31.973753 27.806378 4
34.63189 32.204778 4
26.497206 28.947893 4
32.235362 4.3832327 4
29.153023 -6.8055195 4
36.393903 5.9107303 4
32.47461 1.6064415 4
31.17676 3.5723954 4
28.699344 5.7026704 4
31.7974 7.5652395 4
31.96569 9.9937476 4
31.372195 12.022624 4
29.352324 10.103247 4
32.560978 13.039243 4
29.555307 13.161148 4
30.742554 13.709924 4
34.124823 15.945968 4
30.291641 14.501106 4
31.230815 17.310246 4
30.207389 16.70744 4
31.667993 20.278446 4
32.324003 24.340084 4
30.955095 21.590398 4
31.036123 24.116036 4
34.720496 24.711613 4
33.085883 26.662307 4
34.975106 23.937683 4
29.092283 31.223875 4
40.641076 -3.6135864 4
32.070164 2.3994455 4
32.535556 0.50362186 4
35.990206 4.8909116 4
33.098003 10.376491 4
30.293172 1.0755918 4
32.622137 7.6713083 4
28.746156 8.7393453 4
35.713563 8.3740212 4
37.046788 9.3502349 4
32.993749 12.925167 4
32.304452 13.147023 4
33.165728 16.490868 4
32.808634 13.726984 4
36.846239 14.613906 4
33.299905 19.709799 4
35.534434 17.30966 4
32.365732 24.059984 4
33.076665 21.516962 4
30.313385 23.024266 4
31.541513 22.406574 4
29.668323 27.126699 4
35.476203 27.525323 4
31.140228 27.735484 4
39.307922 34.039294 4
33.458226 2.3101767 4
33.042623 2.2106408 4
34.017264 1.2624165 4
30.322003 0.27463644 4
33.564207 4.2361699 4
33.192963 2.6778334 4
33.951843 7.7669873 4
34.329667 10.54649 4
33.348001 12.582785 4
35.531323 12.248091 4
33.391149 16.411555 4
34.545591 15.422309 4
31.746697 15.786757 4
32.87183 14.841504 4
35.572358 18.056922 4
36.559312 18.673724 4
30.495892 15.648374 4
31.069369 15.371762 4
31.61515 16.033568 4
34.873252 19.464322 4
34.896988 24.287987 4
35.030171 26.698787 4
35.491893 23.954223 4
35.483446 28.163558 4
33.327289 27.269748 4
32.150642 -0.81002228 4
29.01072 2.1127065 4
34.386556 1.9273999 4
34.769189 8.362176 4
32.442553 6.5172099 4
34.865413 7.5769598 4
36.210893 6.1807405 4
34.797457 9.2027818 4
35.369929 11.597468 4
36.67536 13.229077 4
34.808329 12.27928 4
33.366422 14.345723 4
34.69493 16.513127 4
35.301846 15.603036 4
33.430422 18.107932 4
37.470742 20.172749 4
36.839982 20.704497 4
36.112722 23.777325 4
35.283182 21.272451 4
37.70846 24.239658 4
33.425515 25.576591 4
35.296605 26.448457 4
34.091973 27.691336 4
32.706308 29.099956 4
29.756786 28.875659 4
31.013215 -2.1530596 4
32.588035 2.0521885 4
32.74822 2.8892552 4
34.951101 1.7162471 4
37.983216 4.8166989 4
34.78554 4.0914725 4
36.967524 6.7142116 4
35.185137 7.0773336 4
34.409698 9.8071746 4
35.518918 9.7662997 4
35.059169 12.695498 4
36.145157 13.904619 4
37.809384 12.005536 4
37.774042 12.945888 4
34.228279 16.294383 4
33.294721 16.875328 4
35.426157 16.362398 4
34.487951 19.583973 4
34.040459 19.858226 4
35.2657 20.582386 4
37.893298 26.790718 4
33.540901 23.108918 4
33.147376 24.357559 4
34.278977 28.105137 4
31.041525 31.490635 4
37.695578 -5.3897617 4
32.161003 1.1807536 4
33.002077 3.3053925 4
37.772703 6.0167462 4
33.029664 6.6136063 4
37.98844 6.1528401 4
33.909751 8.0862361 4
32.193476 9.7637511 4
34.833675 10.038606 4
32.710683 10.01465 4
34.220953 14.77545 4
34.784805 13.507694 4
34.634008 16.105382 4
35.73059 14.062972 4
36.067623 18.036388 4
36.398195 20.852953 4
35.585656 20.093189 4
36.713085 21.291531 4
35.814773 22.414328 4
32.768948 20.628931 4
33.625196 23.610179 4
35.119401 24.567207 4
31.411635 27.447349 4
34.805064 29.750618 4
38.556698 32.780458 4
34.109969 0.45557551 4
35.905648 2.7871736 4
34.700011 2.5613562 4
33.277897 4.5821224 4
37.609232 4.9950567 4
36.853462 7.0259115 4
36.937632 8.3178541 4
39.815454 9.9954345 4
37.158829 10.701426 4
36.854527 11.54468 4
36.854601 12.670894 4
36.854432 13.785617 4
36.85261 14.911437 4
36.859675 16.026475 4
36.87377 17.087662 4
42.744275 18.624207 4
37.3579 21.232377 4
36.937887 22.092355 4
34.922947 23.454031 4
37.165077 24.706103 4
36.272384 27.268233 4
35.905858 26.945112 4
38.737665 26.016421 4
36.304122 30.64624 4
33.310862 29.377876 4
34.52778 0.97095218 4
34.356131 2.313661 4
37.10418 4.1100101 4
36.089 2.3588283 4
34.456646 5.5961126 4
38.494108 7.1580775 4
35.282813 7.9427622 4
37.384169 9.3529342 4
37.204673 8.6325295 4
37.030011 9.8683406 4
36.289266 10.918537 4
35.074309 13.10732 4
35.373005 14.730625 4
36.991729 14.331164 4
36.549753 17.909012 4
37.513957 16.738324 4
37.425349 18.301777 4
37.951998 16.83571 4
37.323804 19.620462 4
37.226599 20.692185 4
37.356268 21.952298 4
37.179328 23.154357 4
37.498956 24.088427 4
38.601601 28.021313 4
35.438403 28.822413 4
35.536934 1.128203 4
35.942248 1.7467764 4
36.849883 3.7033771 4
37.308232 2.4884477 4
35.555392 5.6433917 4
37.418454 7.6243923 4
37.092634 7.5741078 4
36.059141 8.9017857 4
35.662266 10.596741 4
36.983164 10.939504 4
35.449168 11.904978 4
35.819893 12.813234 4
36.034616 14.308911 4
35.708552 15.62863 4
35.587059 16.813819 4
35.684212 18.297668 4
36.020607 20.046711 4
35.562571 20.685707 4
36.308001 21.67165 4
36.552012 24.426858 4
37.48245 23.784908 4
36.450888 25.346632 4
35.574336 23.612934 4
36.538158 28.545481 4
37.564522 28.669547 4
36.659388 1.1281345 4
36.659732 2.2466189 4
37.948574 2.9229813 4
36.665368 4.2925429 4
37.343997 5.396359 4
37.921229 7.7992594 4
38.587792 9.6585895 4
38.584771 10.794015 4
38.584877 11.916976 4
38.584887 13.039517 4
38.584889 14.161945 4
38.584896 15.284449 4
38.586658 16.410784 4
38.581928 17.519038 4
38.593951 18.709105 4
39.048469 18.608736 4
38.249761 17.777977 4
38.36891 18.957525 4
38.36434 20.076963 4
38.355744 21.197348 4
38.355607 22.320262 4
38.345233 26.09168 4
38.55792 26.996453 4
36.657846 26.937853 4
36.650023 28.038253 4
37.781856 1.1281271 4
37.781768 2.2450567 4
37.892368 3.5154884 4
37.779795 4.4889654 4
38.218979 5.6752747 4
38.036104 6.8798886 4
39.694486 9.6436779 4
37.784546 8.9737383 4
37.782162 10.109986 4
37.784498 11.218654 4
37.782865 12.341142 4
37.783884 13.46284 4
37.784523 14.586031 4
37.784529 15.708552 4
39.768597 16.220782 4
37.826914 17.387218 4
37.782669 19.079044 4
37.774455 20.203157 4
37.769106 21.319713 4
37.769482 22.442289 4
37.773713 23.56657 4
38.386292 24.870664 4
38.482283 24.473575 4
37.853048 27.469436 4
37.781725 28.055989 4
38.904319 1.128126 4
38.904317 2.2449336 4
38.90431 3.3673855 4
38.904312 4.4898516 4
38.904222 5.6123166 4
38.904246 6.7348021 4
38.903894 7.8576754 4
40.272475 9.6271168 4
40.267878 10.76501 4
40.268053 11.887481 4
40.267938 13.010116 4
40.26802 14.132595 4
40.268571 15.256763 4
40.259216 16.350452 4
40.282846 17.456115 4
40.389922 18.733217 4
39.783039 19.937558 4
38.904265 20.204201 4
38.904198 21.326782 4
38.9042 22.449245 4
38.904371 23.571816 4
40.938731 23.512532 4
38.904953 25.81465 4
39.823222 26.808397 4
39.064137 28.223035 4
40.026793 1.128126 4
40.026782 2.244933 4
[...]
POINT_DATA 1250
SCALARS m double
LOOKUP_TABLE default
1
1
1
1
1
1
1
1
1
1
1
1
1
1
1
1
1
1
1
1
1
1
1
1
1
1
1
1
1
1
1
1
1
1
1
1
1
1
1
1
1
1
1
1
1
1
1
1
1
1
1
1
1
1
1
1
1
1
1
1
1
1
1
1
1
1
1
1
1
1
1
1
1
1
1
1
1
1
1
1
1
1
1
1
1
1
1
1
1
1
1
1
1
1
1
1
1
1
1
1
1
1
1
1
1
1
1
1
1
1
1
1
1
1
1
1
1
1
1
1
1
1
1
1
1
1
1
1
1
1
1
1
1
1
1
1
1
1
1
1
1
1
1
1
1
1
1
1
1
1
1
1
1
1
1
1
1
1
1
1
1
1
1
1
1
1
1
1
1
1
1
1
1
1
1
1
1
1
1
1
1
1
1
1
1
1
1
1
1
1
1
1
1
1
1
1
1
1
1
1
1
1
1
1
1
1
1
1
1
1
1
1
1
1
1
1
1
1
1
1
1
1
1
1
1
1
1
1
1
1
1
1
1
1
1
1
1
1
1
1
1
1
1
1
1
1
1
1
1
1
1
1
1
1
1
1
1
1
1
1
1
1
1
1
1
1
1
1
1
1
1
1
1
1
1
1
1
1
1
1
1
1
1
1
1
1
1
1
1
1
1
1
1
1
1
1
1
1
1
1
1
1
1
1
1
1
1
1
1
1
1
1
1
1
1
1
1
1
1
1
1
1
1
1
1
1
1
1
1
1
1
1
1
1
1
1
1
1
1
1
1
1
1
1
1
1
1
1
1
1
1
1
1
1
1
1
1
1
1
1
1
1
1
1
1
1
1
1
1
1
1
1
1
1
1
1
1
1
1
1
1
1
1
1
1
1
1
1
1
1
1
1
1
1
1
1
1
1
1
1
1
1
1
1
1
1
1
1
1
1
1
1
1
1
1
1
1
1
1
1
1
1
1
1
1
1
1
1
1
1
1
1
1
1
1
1
1
1
1
1
1
1
1
1
1
1
1
1
1
1
1
1
1
1
1
1
1
1
1
1
1
1
1
1
1
1
1
1
1
1
1
1
1
1
1
1
1
1
1
1
1
1
1
1
1
1
1
1
1
1
1
1
1
1
1
1
1
1
1
1
1
1
1
1
1
1
1
1
1
1
1
1
1
1
1
1
1
1
1
1
1
1
1
1
1
1
1
1
1
1
1
1
1
1
1
1
1
1
1
1
1
1
1
1
1
1
1
1
1
1
1
1
1
1
1
1
1
1
1
1
1
1
1
1
1
1
1
1
1
1
1
1
1
1
1
1
1
1
1
1
1
1
1
1
1
1
1
1
1
1
1
1
1
1
1
1
1
1
1
1
1
1
1
1
1
1
1
1
1
1
1
1
1
1
1
1
1
1
1
1
1
1
1
1
1
1
1
1
1
1
1
1
1
1
1
1
1
1
1
1
1
1
1
1
1
1
1
1
1
1
1
1
1
1
1
1
1
1
1
1
1
1
1
1
1
1
1
1
1
1
1
1
1
1
1
1
1
1
1
1
1
1
1
1
1
1
1
1
1
1
1
1
1
1
1
1
1
1
1
1
1
1
1
1
1
1
1
1
1
1
1
1
1
1
1
1
1
1
1
1
1
1
1
1
1
1
1
1
1
1
1
1
1
1
1
1
1
1
1
1
1
1
1
1
1
1
1
1
1
1
1
1
1
1
1
1
1
1
1
1
1
1
1
1
1
1
1
1
1
1
1
1
1
1
1
1
1
1
1
1
1
1
1
1
1
1
1
1
1
1
1
1
1
1
1
1
1
1
1
1
1
1
1
1
1
1
1
1
1
1
1
1
1
1
1
1
1
1
1
1
1
1
1
1
1
1
1
1
1
1
1
1
1
1
1
1
1
1
1
1
1
1
1
1
1
1
1
1
1
1
1
1
1
1
1
1
1
1
1
1
1
1
1
1
1
1
1
1
1
1
1
1
1
1
1
1
1
1
1
1
1
1
1
1
1
1
1
1
1
1
1
1
1
1
1
1
1
1
1
1
1
1
1
1
1
1
1
1
1
1
1
1
1
1
1
1
1
1
1
1
1
1
1
1
1
1
1
1
1
1
1
1
1
1
1
1
1
1
1
1
1
1
1
1
1
1
1
1
1
1
1
1
1
1
1
1
1
1
1
1
1
1
1
1
1
1
1
1
1
1
1
1
1
1
1
1
1
1
1
1
1
1
1
1
1
1
1
1
1
1
1
1
1
1
1
1
1
1
1
1
1
1
1
1
1
1
1
1
1
1
1
1
1
1
1
1
1
1
1
1
1
1
1
1
1
1
1
1
1
1
1
1
1
1
1
1
1
1
1
1
1
1
1
1
1
1
1
1
1
1
1
1
1
1
1
1
1
1
1
1
1
1
1
1
1
1
1
1
1
1
1
1
1
1
1
1
1
1
1
1
1
1
1
1
1
1
1
1
1
1
1
1
1
1
1
1
1
1
1
1
1
1
1
1
1
1
1
1
1
1
1
1
1
1
1
1
1
1
1
1
1
1
1
1
1
1
1
1
1
1
1
1
1
1
1
1
1
1
1
1
1
1
1
1
1
1
1
1
1
1
1
1
1
1
1
1
1
1
1
1
1
1
1
1
1
1
1
1
1
1
1
1
1
1
1
1
1
1
1
1
1
1
1
1
1
1
1
1
1
1
1
1
1
1
1
1
1
1
1
1
1
1
1
1
1
1
1
1
1
1
1
1
1
1
1
1
1
1
1
1
1
1
1
1
1
1
1
1
1
1
1
1
1
1
1
1
1
1
1
1
1
1
1
1
1
1
1
1
1
1
VECTORS v double
-1.8441166 -6.9802667 0
-4.5358671 -4.9094949 0
-3.8223034 -10.257956 0
-0.9670879 -13.775249 0
-7.3591485 5.3350531 0
9.7788368 -1.8281492 0
-3.8432943 4.5296132 0
15.294089 3.63962 0
-12.670347 1.6060952 0
7.8701302 3.0930403 0
7.3821483 -2.9311984 0
-3.4667466 -14.48837 0
-18.686243 3.6548403 0
-1.8984902 -3.1800365 0
-7.2738359 7.6174773 0
-2.2519052 4.8449885 0
5.9256091 -4.7443418 0
18.160971 -9.5229007 0
-2.4307234 -4.9881946 0
0.1253721 12.378679 0
-7.3027916 -0.31564233 0
0.57088224 9.5574073 0
4.8240062 -3.9380599 0
0.20979673 22.96256 0
1.6762698 10.717696 0
8.8419929 -9.0851854 0
-12.201696 -4.07679 0
-4.8756827 -9.0167571 0
7.6515435 1.8722404 0
-2.8629906 3.8465397 0
-3.3444642 -1.8554595 0
9.9433373 -13.326762 0
-4.8276233 -8.4190465 0
2.1271503 -4.3106455 0
-12.93971 -7.8189823 0
2.4669688 -18.825079 0
10.626734 6.0360199 0
-5.7586375 6.2571236 0
22.823708 15.477329 0
-4.1670228 -0.4488797 0
-3.9816161 5.3714604 0
-3.3060742 -11.885159 0
-4.719283 1.5234074 0
-9.5298532 -20.119564 0
-0.55727765 3.1520231 0
-8.495969 4.6493514 0
-5.1545835 -1.9369806 0
-2.3322734 2.5197511 0
1.4688497 13.663488 0
-7.0645114 8.5011169 0
5.5447499 -11.111157 0
3.1129409 -15.916472 0
-5.6819196 -7.8570549 0
-2.0339927 3.42659 0
10.833759 -11.883858 0
-7.5697985 1.0686624 0
-11.215372 -4.6552438 0
2.7975357 4.1408811 0
6.7664751 6.5348582 0
0.48658539 3.3092529 0
-10.884526 -11.496088 0
-3.0888727 -0.32685009 0
5.6387076 3.9569195 0
-0.72861691 0.70188654 0
-2.4938047 2.7155325 0
2.2368469 -6.0242341 0
-2.4323416 -2.1117626 0
2.7707071 11.22183 0
15.477933 -1.2091167 0
-4.1532856 2.6167086 0
2.1767731 3.0162814 0
6.4490312 0.45665493 0
2.4225105 -9.7672508 0
6.5369519 5.9405363 0
-2.136918 -0.81089614 0
3.9466542 -13.879275 0
-3.7659462 -5.322554 0
-0.93397085 -0.82203822 0
3.5533689 -12.638977 0
0.97304203 -11.588948 0
-4.6377652 6.8385578 0
-8.4533453 -1.7508677 0
7.7431038 10.147178 0
0.67040589 -1.1074225 0
-2.4950634 -4.5503023 0
-0.59278967 -1.1536772 0
-10.497763 -9.7960883 0
-3.2271004 -4.9766123 0
8.9097443 -7.909875 0
2.8926123 -0.65041308 0
5.3524958 -2.8725584 0
12.510947 -9.1232139 0
-2.7257505 -3.4113329 0
-9.1651495 -5.7819511 0
-11.235999 0.64464159 0
3.0828736 -8.2258629 0
-4.0768642 4.1820917 0
6.3872926 9.0756405 0
-2.0713926 -3.1406147 0
0.47115582 14.494986 0
3.3724406 -12.746345 0
-5.5320327 -14.760811 0
1.7464083 4.9302946 0
-2.6344483 6.7798316 0
-7.2797721 -11.768576 0
-14.010771 -1.0109533 0
5.9368995 2.8837574 0
-7.3736261 -7.9418155 0
15.316061 -8.6825433 0
6.6116569 -7.9201246 0
12.753249 -2.3084957 0
-10.771736 5.9666218 0
-3.6362053 6.9858567 0
3.4433755 -21.494317 0
-1.2751493 -1.9650245 0
17.873716 1.6219854 0
1.273493 8.9719876 0
-10.414271 -2.7108859 0
2.6332922 8.8573755 0
4.7022813 -4.7577226 0
1.3902749 12.209695 0
3.0797046 15.275807 0
8.6447503 1.74955 0
-5.7142698 1.0110971 0
-5.7640573 0.63037639 0
-2.3918189 -8.9845971 0
-10.89758 -9.9891499 0
3.0753322 2.4802738 0
3.2976669 -7.4758853 0
1.1585916 -7.5652924 0
-8.8195702 10.060957 0
-0.42617777 2.3248375 0
-6.3580609 12.841817 0
-2.9473717 -2.9184237 0
10.725579 8.4498131 0
0.96776469 3.1598445 0
10.886723 5.2452321 0
2.0967785 -1.8308262 0
6.7854044 6.9060155 0
-5.0476736 -15.470319 0
-8.1552717 5.0902782 0
7.4122167 -4.6857123 0
-2.9369776 -6.1766449 0
2.1270872 8.5590299 0
-5.9217851 6.6075046 0
4.8416954 11.83559 0
1.175428 -0.3025998 0
2.5111553 0.98727426 0
2.7835573 9.3004593 0
-9.1172539 1.0124147 0
-0.33231598 12.926502 0
-7.1221725 -15.017649 0
3.1143897 -15.580255 0
-0.3202744 -3.8855507 0
3.1212816 -13.803714 0
2.4079227 1.7205816 0
-0.75972004 -0.61042187 0
2.5126686 -5.5974396 0
7.8686173 2.5071292 0
0.28696269 -5.0821892 0
-6.5020395 3.9962524 0
-5.3445435 3.3702845 0
0.2561975 -6.4457001 0
5.8068467 10.87787 0
-1.6930304 -1.8461633 0
13.730193 -6.2992826 0
-0.49178713 8.9328762 0
0.4823342 5.8647969 0
-9.524888 11.752602 0
4.2139856 -0.92354635 0
7.4034976 -1.8584509 0
9.9695225 -1.5423374 0
0.13798903 10.692309 0
2.7252927 -0.32767417 0
-9.1936751 7.028968 0
7.9152496 -6.5258364 0
-12.405179 -5.148996 0
2.119694 -16.801635 0
-0.43043476 -7.1904072 0
-11.763936 8.951736 0
-4.8810537 -16.38672 0
-4.4737741 -3.9457228 0
-9.9266799 -12.520304 0
11.690744 -6.1099525 0
0.83193362 -2.1655815 0
-4.7620002 -2.4592262 0
-3.9237849 -3.2650637 0
-9.1156535 4.4049804 0
10.168974 -9.9936514 0
6.9007099 -5.7557486 0
2.0119834 7.3054985 0
9.6178253 -14.532326 0
-10.297852 6.6390689 0
10.890214 -0.95123716 0
-8.2848579 -1.0028253 0
3.6475546 -8.334509 0
-9.1553394 3.2090376 0
3.4852618 5.3553683 0
-0.30927358 11.618671 0
6.2746886 8.8216048 0
-3.9814253 10.406051 0
-8.261927 -3.5586479 0
0.15021519 0.57972418 0
6.3464564 -18.452284 0
-11.669155 -2.7786479 0
4.3104184 0.024986844 0
-0.96429648 -3.7099369 0
5.5828642 9.167426 0
10.797824 -10.823093 0
4.0494588 -1.9536409 0
4.9430479 9.5808963 0
13.5282 12.260379 0
-10.872567 2.7737841 0
-5.5779451 -18.855058 0
-4.1043936 5.6112756 0
14.45046 -6.727723 0
5.6751919 -13.778115 0
-8.1096884 -8.0829791 0
-0.5945313 -14.096888 0
7.1730322 8.0228425 0
-13.272311 9.409847 0
3.3309229 4.549106 0
-2.6861007 -3.1646317 0
-0.19496285 6.1282783 0
-8.262545 0.2771829 0
2.2893853 -1.0918784 0
-10.199577 1.5704675 0
2.5557027 -6.3158674 0
-6.4073939 8.3916247 0
2.7930054 -5.364674 0
-1.8844287 1.7732424 0
-10.672581 5.7203314 0
9.3879476 6.5032588 0
-9.4884947 4.0106685 0
3.2857861 4.9376542 0
2.306744 -1.4520175 0
-5.0734942 19.330155 0
-6.1361139 -1.6841608 0
-10.645507 -4.4865687 0
-5.9543582 -4.3586679 0
1.1444733 5.6191378 0
2.2625513 -3.2945093 0
-5.6814667 12.891084 0
-1.9194346 -7.5521215 0
-0.52857246 -0.98319689 0
-10.328778 -3.5279883 0
-8.1873169 -4.3605184 0
-8.233942 -2.0846493 0
-1.6968565 -2.4463491 0
-10.63368 6.042971 0
-9.3669817 -11.171102 0
6.9067279 -2.3979042 0
-1.4766949 -5.2748579 0
-13.357464 -12.750579 0
5.0463907 0.82583256 0
-7.784698 -3.8186511 0
1.8137516 0.29594179 0
-5.0768924 -10.378907 0
-8.9893084 3.1921236 0
2.1125456 -10.932835 0
6.3404664 15.385394 0
1.5546208 5.6532399 0
4.9915156 -4.0702697 0
4.7412195 -5.3169381 0
-10.782163 1.596173 0
-9.7493898 9.1478153 0
-3.8818423 -14.825128 0
5.0194625 13.821653 0
-4.6119526 0.61716676 0
3.6405627 0.22129947 0
0.74641181 -2.2434623 0
5.9297376 -6.6022453 0
8.0563719 -12.266246 0
-8.7516068 3.2105617 0
-10.026378 9.1836775 0
0.82935489 -12.769546 0
-7.7181936 -5.6593247 0
-0.88952053 0.04123582 0
-4.1800465 -2.7415222 0
-6.8251901 -9.850403 0
6.3160849 -7.2956265 0
3.4062335 -9.4698928 0
-14.210524 0.73486753 0
0.25918241 -4.0870772 0
-2.8342058 -14.505249 0
-9.9224721 0.97704956 0
-1.6589654 -2.2501907 0
4.8671803 8.9780116 0
-8.0165226 -3.2039037 0
10.399661 4.1652851 0
3.845695 12.099256 0
-9.1709366 3.3960475 0
3.5718602 6.1080211 0
7.7274447 -2.5420947 0
-0.21404461 -9.5601289 0
1.4326207 -3.0713205 0
-7.7924772 1.3947201 0
-13.530211 7.6766317 0
-12.56078 8.7672991 0
3.3785696 9.8878896 0
-0.94770975 -7.7187927 0
-12.820875 -2.9678972 0
10.320854 -16.144125 0
-10.173823 1.2900079 0
-9.0332566 -7.0131163 0
-8.5145095 -3.2002543 0
-7.2320069 2.1690412 0
14.264953 2.3656149 0
-3.4776513 1.7039355 0
-8.4837099 -2.8060875 0
-8.478871 -2.7115726 0
-8.4910422 -2.8378307 0
-8.332628 -1.9823673 0
-8.4623697 -2.8515499 0
-6.0925848 -6.6979145 0
13.984567 1.8789885 0
-0.9381439 4.4862821 0
-8.1573783 1.4507281 0
-10.833618 -4.783811 0
-4.8421465 6.5499372 0
-4.9152152 9.5540639 0
0.80812191 4.5986271 0
0.60623393 1.0297072 0
-4.567474 9.5568702 0
-9.9131957 5.830721 0
0.53360873 -14.754373 0
-10.411354 -0.12482634 0
4.5500322 4.6236623 0
6.6673885 0.10640689 0
-9.7464806 0.080633141 0
5.6691886 2.9861298 0
-10.406256 0.93603418 0
6.9817156 8.1979129 0
-1.1971593 0.20870662 0
-2.6863657 -9.1439858 0
-2.3049904 -5.850758 0
-5.5845743 -2.0233524 0
-5.8431902 -0.54761995 0
3.8220577 -7.8371475 0
4.9911885 3.593755 0
-12.063221 -3.2515672 0
-2.6891845 -1.9269608 0
-0.90825342 -7.9925635 0
-5.2394086 -3.0946224 0
-6.2833166 -2.9338705 0
-0.56488415 -0.65684743 0
-7.7723246 2.2046538 0
-9.1804161 -2.7974944 0
-15.272658 5.04561 0
-1.5056827 6.9963323 0
-9.999548 0.013815738 0
-3.688191 -7.7015937 0
-1.1691367 3.3272708 0
0.83838479 -6.7816327 0
-9.677303 0.40884147 0
1.1933326 -6.8641424 0
-11.141102 -14.094985 0
-9.5618929 0.36883888 0
-9.2837095 3.0164378 0
4.0834124 -2.3861739 0
-10.73952 -2.8076276 0
-5.4907409 -7.5384811 0
5.2267076 1.8365946 0
-1.6846202 -1.4314794 0
-8.2511915 0.74786684 0
-8.6999321 4.2456953 0
-1.1701885 2.8437152 0
-9.8897028 2.9931065 0
-4.773687 -0.6078896 0
5.0720912 8.3057825 0
-0.014749788 -2.213622 0
-10.242347 -1.2778076 0
-9.1588703 -9.2148966 0
-3.9131851 9.2476915 0
0.08609498 3.1341924 0
-10.0003 0.01043564 0
-9.9855513 0.04158843 0
-1.7010522 -6.2062011 0
-9.8411209 -2.4033881 0
-2.5993609 -3.3463869 0
3.6938577 0.18831868 0
-10.867097 5.8281117 0
-10.926672 5.9511941 0
-10.926097 5.9619189 0
-10.925952 5.9623566 0
-10.92535 5.9621179 0
-10.925227 5.962512 0
-10.884569 6.0325431 0
-10.979626 5.882775 0
-10.653808 6.4943631 0
-6.9076965 -3.5847795 0
-1.0177319 -9.9811065 0
-0.37623845 -9.70627 0
-0.39143042 -9.6510461 0
-0.31985633 -9.5392026 0
-0.31260072 -9.5288333 0
1.4609521 10.09643 0
6.2415668 6.9389859 0
-10.065496 0.0092262678 0
-10.227685 -0.040191246 0
-10.000017 0.010122019 0
-10.008537 0.008759836 0
-7.1344966 3.8467793 0
-10.044364 -0.12295359 0
-4.8094309 0.75554109 0
-2.6346535 5.0973697 0
1.7517711 11.145191 0
-9.9866593 -0.035659502 0
-9.9951065 0.12828161 0
-9.9770909 -0.039603841 0
-10.007916 0.098052517 0
-10.003669 -0.091650543 0
-9.9760759 -0.040428823 0
-9.9751837 -0.039635035 0
8.3813171 -5.7088305 0
-9.9534135 -2.9945214 0
-9.8937584 0.061703964 0
-10.016644 0.0097637885 0
-10.198652 -0.15516726 0
-10.163994 -0.15381769 0
-10.160207 -0.0036815619 0
0.25663233 2.8870373 0
-12.058691 -2.5320458 0
-5.1689727 19.64131 0
-10.004498 -0.0057841562 0
-9.9999996 0.010083634 0
-10.000093 2.2717548e-05 0
-10.000435 -4.1163452e-05 0
-10.00031 0.00012313823 0
-10.00484 0.00037613058 0
-10.005882 0.0036611166 0
-10.003785 0.0031146706 0
-10.043468 1.5642077 0
-10.044033 2.4174934 0
-10.041205 2.4169782 0
-10.041853 2.4272608 0
-10.040501 2.4277043 0
-10.020845 2.5193609 0
-10.267031 1.0084205 0
-9.8243441 -0.22295553 0
-1.671864 9.7527338 0
-0.33735697 9.426275 0
-10.008426 -0.0034475123 0
-10.010095 -0.00072345934 0
-10.009978 -0.00073504336 0
-9.9996155 0.0012682917 0
-3.3927427 -7.9188526 0
-8.8234176 -1.3050299 0
-9.156688 -3.2576444 0
-3.9549138 6.2604752 0
-9.999964 0.010080011 0
-9.9999949 -3.7764361e-05 0
-9.9999957 9.3323537e-07 0
-9.9999999 3.223577e-06 0
-10.000008 3.3667434e-06 0
-10.000014 1.089517e-05 0
-9.9992836 0.0014623735 0
-1.7731974 -7.1936327 0
7.0213536 1.055014 0
6.8602143 0.18307726 0
6.8637737 0.18415756 0
6.8599524 0.17356805 0
6.8614423 0.17320894 0
6.8566006 0.080574692 0
6.7549583 1.6120443 0
6.8813992 2.9382044 0
-9.9852691 -0.037087821 0
-10.044626 -0.04789825 0
-10.000019 -2.3571781e-05 0
-10.00004 0.00086190513 0
-11.828121 -5.347615 0
-10.005213 -0.008209665 0
-10.000188 0.00051216762 0
-0.51994569 2.5501541 0
-10.000318 -0.010346924 0
-9.9999314 0.010079981 0
-9.9999899 -3.6567578e-05 0
-9.99999 3.0855855e-06 0
-9.99999 3.8962593e-06 0
-9.9999901 3.9114271e-06 0
-9.9999926 8.2127337e-06 0
-10.000349 0.00039682178 0
-10.003276 -0.00073032645 0
-10.007688 -0.0035836884 0
-10.006915 -0.0031702561 0
-10.006922 -0.0031746318 0
-10.00691 -0.0031662176 0
-10.006917 -0.003166525 0
-10.006872 -0.0032205803 0
-10.006968 -0.0030424997 0
-10.010341 0.01940401 0
-9.9998286 -0.015713227 0
-10.000026 -3.6597109e-05 0
-9.9999917 5.8549459e-06 0
-10.000052 0.00015591382 0
0.33446495 2.1274315 0
-10.000089 -0.00015413894 0
-10.000011 1.706377e-05 0
-10.000256 5.4859125e-05 0
-10.000007 -0.010091146 0
-9.9999081 0.010079965 0
-9.9999865 -3.5022944e-05 0
-9.9999865 4.55856e-06 0
-9.9999865 5.369769e-06 0
-9.9999865 5.3693109e-06 0
-9.9999864 5.421064e-06 0
-9.9999916 7.8850474e-06 0
-10.000003 8.1355578e-06 0
-10.000011 5.7203452e-06 0
-10.000011 5.4968484e-06 0
-10.000011 5.5174692e-06 0
-10.000011 5.4114026e-06 0
-9.9999999 1.37518e-05 0
-9.9999994 1.346997e-05 0
-10.000004 3.0322458e-05 0
-10.001414 0.010017373 0
-9.9997923 -0.039310666 0
-9.9999777 -8.6311156e-06 0
-9.9999726 1.6063554e-05 0
-9.9999786 1.9051639e-05 0
-9.9999992 1.5333461e-05 0
-9.9999794 1.1666858e-05 0
-9.9999735 1.6712148e-05 0
-9.9999737 5.6628668e-05 0
-9.9999729 -0.010064159 0
-9.9997157 0.01007983 0
-9.9999707 -2.3090995e-05 0
-9.9999704 1.6231323e-05 0
-9.9999704 1.7530899e-05 0
-9.9999693 1.8512431e-05 0
-9.9999693 1.850659e-05 0
-9.9999693 1.8506681e-05 0
-9.9999693 1.8500132e-05 0
-9.9999687 1.899953e-05 0
-9.9999682 1.899123e-05 0
-9.9999682 1.948019e-05 0
-9.999968 1.9482379e-05 0
-9.9999682 1.9497351e-05 0
-9.9999678 1.9487141e-05 0
-9.9999706 2.2552474e-05 0
-10.000113 0.00012886022 0
-10.000297 -0.00017457192 0
-9.9999714 1.4742582e-05 0
-9.9999665 2.0879009e-05 0
-9.9999598 2.7351148e-05 0
-9.9999599 2.7269303e-05 0
-9.9999592 2.725677e-05 0
-9.9999591 2.857163e-05 0
-9.999959 6.8296514e-05 0
-9.9999582 -0.010051617 0
-9.9995339 0.010079729 0
-9.9999569 -1.1749398e-05 0
-9.999957 2.7423701e-05 0
-9.999957 2.8733708e-05 0
-9.9999565 2.9200273e-05 0
-9.9999554 3.0201582e-05 0
-9.9999552 3.018647e-05 0
-9.9999552 3.018735e-05 0
-9.9999552 3.018902e-05 0
-9.9999552 3.019199e-05 0
-9.9999546 3.0186768e-05 0
-9.9999546 3.0685536e-05 0
-9.999954 3.0677886e-05 0
-9.999954 3.1158299e-05 0
-9.9999529 3.2135704e-05 0
-9.9999547 3.2637758e-05 0
-9.999955 3.1698677e-05 0
-9.9999513 3.2540351e-05 0
-9.9999501 3.4575533e-05 0
-9.9999503 3.4579637e-05 0
-9.9999502 3.4575219e-05 0
-9.9999503 3.457427e-05 0
-9.9999503 3.5391241e-05 0
-9.9999502 7.5125866e-05 0
-9.9999499 -0.010045254 0
-9.9994011 0.010082637 0
-9.9999185 -1.1931933e-05 0
-9.9999171 2.8434329e-05 0
-9.9999165 2.9732568e-05 0
-9.999916 2.9717338e-05 0
-9.9999145 3.0682787e-05 0
-9.9999139 3.2165443e-05 0
-9.9999049 3.2653396e-05 0
-9.999904 3.3116153e-05 0
-9.9999027 3.4111452e-05 0
-9.9999022 3.5072894e-05 0
-9.9999022 3.506873e-05 0
-9.9999016 3.5064942e-05 0
-9.9999016 3.5546768e-05 0
-9.999901 3.6056611e-05 0
-9.9999004 3.6035565e-05 0
-9.9998999 3.6533775e-05 0
-9.9998999 3.7020675e-05 0
-9.9998999 3.7017103e-05 0
-9.9998914 3.7006167e-05 0
-9.9998908 3.7993348e-05 0
-9.9998821 3.847098e-05 0
-9.9998824 3.9276866e-05 0
-9.9998827 7.870288e-05 0
-9.9998908 -0.010044276 0
-10.008886 0.0095229833 0
-10.010004 7.2512907e-06 0
-10.010002 3.7897432e-05 0
-10.010002 3.9205152e-05 0
-10.01 4.0187204e-05 0
-10.01 4.0671407e-05 0
-10.01 4.0683899e-05 0
-10.01 4.0671074e-05 0
-10.010015 4.1183871e-05 0
-10.010015 4.1184846e-05 0
-10.010014 4.0675931e-05 0
-10.010006 4.1678954e-05 0
-10.010006 4.2151121e-05 0
-10.010005 4.3149233e-05 0
-10.010004 4.314002e-05 0
-10.010004 4.3633764e-05 0
-10.010003 4.4119595e-05 0
-10.010004 4.4621084e-05 0
-10.010004 4.4618389e-05 0
-10.010004 4.4604418e-05 0
-10.010001 4.6113102e-05 0
-10.010002 4.6083299e-05 0
-10.009993 4.7367981e-05 0
-10.009996 7.9011093e-05 0
-10.009437 -0.0094774461 0
9.3664085 -3.8409617 0
-3.4907599 -4.5471329 0
-3.4408963 16.361668 0
6.9878192 -11.314252 0
0.31145896 -3.1435675 0
1.183587 -6.9659015 0
2.2092532 1.7010922 0
-10.671847 -7.9092773 0
1.8616468 4.274093 0
-3.0128421 4.4099983 0
7.725756 -12.526393 0
4.9523373 -11.62012 0
-13.998299 -1.6397345 0
1.2377048 -3.5904428 0
1.2307299 -8.8037813 0
-3.6621031 -4.7596438 0
15.642397 0.46628325 0
-19.936803 -10.626141 0
1.6348484 11.009637 0
-1.6716813 12.080615 0
-4.0659455 2.2808329 0
0.37954707 10.106841 0
8.2165759 4.7060184 0
-2.628231 22.954804 0
-9.4775382 5.5651778 0
7.3600872 -2.0841414 0
2.4236507 -4.6248387 0
5.2287827 0.074375855 0
1.380199 -5.6403852 0
-9.2127454 -6.1385821 0
0.80352905 -7.7248269 0
5.0265951 2.636642 0
2.235126 10.391813 0
0.031530709 -2.3940932 0
6.550521 10.882098 0
-3.6995223 5.26077 0
-0.21959513 -8.5407827 0
6.5766124 -6.7503317 0
-8.941653 5.0269676 0
-0.12412827 5.981286 0
1.0360058 6.4335017 0
11.459009 4.8008767 0
-4.2538467 -5.511273 0
-6.9231469 2.5748047 0
-6.7280116 0.9122511 0
9.7951801 -1.2743326 0
-5.6740362 6.9236909 0
6.2010513 0.28711474 0
7.8613924 5.4650465 0
-0.12113218 9.3398098 0
8.2358402 -6.0207241 0
0.60231288 -0.48030223 0
-5.4413042 -1.4363437 0
-6.8624905 -6.0567609 0
-6.6859567 14.816538 0
7.4985849 -4.2028074 0
-2.231054 -12.981426 0
5.1450821 -10.381675 0
-7.6783867 7.3673911 0
2.3975871 -4.9039463 0
3.0851928 -1.8059662 0
-2.2120859 -10.815741 0
-9.2410623 10.458732 0
-1.6125179 -2.7761112 0
-0.24517571 4.1714041 0
7.2409237 1.8763601 0
4.8860284 0.7510996 0
-4.4113271 -7.382421 0
3.0955127 -4.7922806 0
7.3099887 1.5300233 0
5.0674171 5.4628996 0
2.5393216 1.1242494 0
5.753526 3.8061369 0
9.6475658 0.19411592 0
3.0643674 -9.2913205 0
-6.5485126 -6.7367902 0
-1.9776942 -10.56414 0
-11.253844 -3.8358332 0
-2.001201 -0.8950708 0
-3.141102 2.396664 0
13.890865 -2.8813778 0
-2.5694439 3.1679904 0
7.4498452 2.4836774 0
-2.2567688 5.2459439 0
-7.6971727 1.2438935 0
-2.5990458 1.6612708 0
0.7051061 0.24857344 0
9.2928646 5.671963 0
-1.156738 7.1100289 0
-12.705108 17.41909 0
-7.1099704 -4.7826975 0
-7.4456942 -9.4180585 0
-7.1902542 -3.4104169 0
-12.326366 6.8610395 0
-8.1443667 -6.3541349 0
-0.8488382 -6.0935792 0
10.896233 1.1569681 0
-0.2733611 5.9796001 0
7.1195398 2.7625918 0
7.0375685 8.2929064 0
8.3178679 -8.7026258 0