# vtk DataFile Version 4.0
hesp visualization file
ASCII
DATASET UNSTRUCTURED_GRID
POINTS 1250 double
28.383005 -8.7382209 4
28.813867 -7.4613356 4
30.730175 -10.337173 4
29.281515 1.8802211 4
35.805145 5.9434156 4
32.380987 3.7694294 4
32.80003 -10.06343 4
36.985398 10.29977 4
30.441803 14.026025 4
28.9461 7.5630701 4
34.138669 11.779903 4
35.259095 11.989873 4
33.271545 10.077519 4
30.767643 13.508459 4
27.986372 20.790752 4
36.036101 11.553035 4
29.002713 27.413997 4
28.817028 18.620279 4
31.204988 20.990915 4
30.118978 31.091935 4
30.209305 25.342827 4
30.253083 29.67004 4
35.27004 20.923037 4
30.842517 53.999376 4
31.393594 41.868268 4
45.451689 -13.943002 4
26.678067 -6.8925305 4
22.954378 -12.668104 4
30.700809 -0.36004626 4
27.555283 5.4801165 4
25.799424 3.7607318 4
23.827231 -2.9152349 4
31.399541 -9.6701185 4
29.734898 -0.3228873 4
26.671897 2.0635351 4
25.170351 9.0250021 4
34.165431 6.4307654 4
32.333363 13.654367 4
30.055617 8.9411066 4
33.068786 12.410786 4
29.303975 23.249505 4
30.206092 14.467786 4
27.018303 18.28211 4
32.692363 20.627585 4
32.001851 27.07911 4
29.700755 31.986051 4
30.257776 24.140421 4
30.17628 33.098486 4
30.890297 46.213611 4
30.735559 35.890934 4
32.652713 -8.708729 4
32.3368 -18.75347 4
30.700906 -8.5182264 4
35.524623 2.1595013 4
41.665962 -11.327343 4
36.541171 0.68514524 4
33.078958 -8.1818526 4
35.955098 10.333908 4
33.299121 7.9229693 4
35.539823 7.3789862 4
31.661119 6.328312 4
29.458402 8.2974847 4
31.592597 8.5216285 4
33.357696 5.5653805 4
33.44543 11.76027 4
29.731735 12.629267 4
30.392878 15.301779 4
37.09597 20.800715 4
31.489792 16.04031 4
29.199923 32.194494 4
28.413638 19.381297 4
37.114949 26.106911 4
29.811471 19.815384 4
33.239324 34.332792 4
32.47026 27.348283 4
39.410473 -21.732848 4
28.857691 -5.3459931 4
30.647223 10.613507 4
36.612106 -12.602269 4
27.896203 4.6783354 4
27.030657 6.5552296 4
27.484801 8.9484277 4
33.584491 7.0127164 4
30.266446 9.2684143 4
33.655551 9.3032845 4
29.093872 14.607594 4
31.484213 8.2202408 4
30.615994 16.323335 4
32.693378 15.758604 4
32.232853 7.6710408 4
31.437337 14.782347 4
28.909549 13.584828 4
34.455947 12.466634 4
30.681986 18.338946 4
31.14473 24.698258 4
37.930477 9.5743014 4
30.540773 24.705555 4
30.185762 28.04837 4
29.707131 30.842292 4
32.773442 50.855766 4
36.718849 -16.195415 4
25.483804 -17.085841 4
34.405367 -1.9941735 4
35.537416 5.7135689 4
21.544571 -7.7101782 4
25.735178 5.3198798 4
28.434435 4.435255 4
28.814553 0.72939062 4
36.483921 6.0544306 4
35.487726 4.7647219 4
31.641612 5.2849895 4
33.007875 2.2117316 4
34.898855 11.927007 4
30.534715 7.3090466 4
33.297052 15.421505 4
37.02868 19.838888 4
36.710536 14.832829 4
31.538271 15.299418 4
32.60474 17.743406 4
36.964108 23.644948 4
30.611889 28.023372 4
34.999302 30.361281 4
36.31425 26.003743 4
31.011834 33.403565 4
33.870848 32.079898 4
27.305203 -12.43038 4
27.186428 -18.367778 4
37.449955 10.647672 4
32.768866 2.5319421 4
32.101838 2.1000598 4
34.374101 8.7213607 4
33.058718 4.9701951 4
35.473474 3.0083746 4
33.866737 15.726367 4
42.557814 17.969409 4
35.056956 14.371465 4
33.196877 15.970254 4
33.271812 23.512507 4
40.273564 15.31769 4
34.827182 13.862433 4
32.356902 25.428768 4
31.421062 24.753778 4
35.894411 23.704466 4
35.31012 29.881253 4
34.480562 32.849561 4
33.9761 33.776675 4
32.394461 21.844799 4
29.733846 28.49876 4
36.997919 40.11013 4
28.811705 35.780621 4
29.932409 2.0688369 4
23.099189 -19.570498 4
33.265629 -5.3269013 4
32.710707 -5.9697658 4
31.384167 -4.0866641 4
29.526281 6.1027588 4
29.909348 5.9899155 4
36.7097 8.2020346 4
33.423808 11.43471 4
29.237265 9.720631 4
38.731899 10.783466 4
29.57413 14.981238 4
30.921673 11.001576 4
30.968179 15.454445 4
27.484229 17.4932 4
27.3382 14.426247 4
30.501741 19.145116 4
31.672145 23.667019 4
33.910188 31.518867 4
31.606129 26.806194 4
31.260947 28.758636 4
29.502572 29.746992 4
32.840669 36.13634 4
32.601693 28.941619 4
25.617583 39.338953 4
47.369038 -9.1605474 4
34.277362 -6.1310072 4
32.867308 -11.755407 4
32.499943 2.3957806 4
35.175616 8.2314617 4
26.285428 -12.930944 4
34.108757 6.8878712 4
24.096187 8.9138275 4
34.250701 3.7616626 4
35.085993 4.9688229 4
34.028118 9.7462247 4
27.911986 14.713931 4
34.686763 23.119456 4
33.377238 10.691674 4
35.310517 15.749164 4
33.286058 19.372069 4
32.866486 17.515758 4
31.495107 25.244354 4
35.9752 22.121648 4
31.37582 22.006674 4
29.042165 17.186597 4
25.668124 36.931372 4
35.63024 34.763168 4
31.223595 29.839358 4
44.641302 41.537547 4
30.966823 5.1608474 4
33.911891 2.7094844 4
31.778912 -2.6602582 4
34.14171 -17.319421 4
33.877688 -5.8733147 4
30.013774 3.7133254 4
35.03082 2.6986539 4
37.850325 8.2307836 4
33.751096 11.274386 4
34.540547 9.6036952 4
31.556081 16.774636 4
31.915172 19.863511 4
29.659613 16.274916 4
28.754189 15.95747 4
38.186556 23.660409 4
37.538763 19.637406 4
31.797405 11.956551 4
31.08223 8.0725229 4
30.398729 16.121511 4
35.524288 19.379633 4
39.810035 25.120996 4
37.402919 29.792067 4
31.063657 22.98008 4
38.398007 34.550921 4
34.407357 33.496551 4
32.708989 -6.6892082 4
22.274496 -9.6585062 4
37.33238 -7.9028883 4
33.206399 11.011964 4
30.357877 0.65748051 4
34.900649 7.3391287 4
35.63049 8.00637 4
38.867919 7.515194 4
34.855687 15.243894 4
39.375192 7.378036 4
30.77676 13.227479 4
28.215148 11.248922 4
31.045611 18.681724 4
35.22555 11.011587 4
34.160165 19.88584 4
32.315298 20.480443 4
34.410783 21.750682 4
34.224994 29.416718 4
33.96584 21.476559 4
32.820845 28.35792 4
33.4147 23.798962 4
28.677345 26.943279 4
33.690844 32.905845 4
36.467398 34.413985 4
23.342028 36.73034 4
25.544307 -11.275527 4
32.540024 -3.5147958 4
33.746333 -1.7521506 4
28.45506 -5.5945063 4
42.20495 4.9909755 4
33.238598 0.99120237 4
39.532219 9.4128745 4
35.201784 1.4569851 4
35.13686 7.9734083 4
34.460881 13.181411 4
34.211105 16.048337 4
37.124142 14.411355 4
42.094979 11.831893 4
39.788223 11.338072 4
33.794638 18.703338 4
32.919582 18.153308 4
35.473278 15.55947 4
29.388453 22.809502 4
34.516341 19.885904 4
35.311623 24.894202 4
34.435936 28.977975 4
30.011398 19.681296 4
32.684388 23.638806 4
30.343237 31.468274 4
29.5453 33.766858 4
38.402107 -16.245902 4
31.484337 -4.9297027 4
27.458763 3.6723462 4
35.783446 6.7381663 4
35.092476 6.7715202 4
39.173989 4.1081684 4
34.26909 4.7318666 4
29.294057 7.6052033 4
35.7385 12.327933 4
33.572457 8.5467275 4
35.851159 14.017341 4
33.398032 13.597512 4
34.760748 17.375211 4
33.148498 14.749354 4
36.452441 21.560226 4
37.655584 22.47624 4
36.129275 16.633414 4
33.194318 22.596053 4
32.20472 25.696251 4
34.304735 23.945438 4
34.077759 26.175846 4
33.313919 25.045802 4
29.518046 32.933491 4
27.690933 42.790772 4
41.426943 41.183456 4
34.740361 -6.158538 4
33.234708 -1.2719566 4
32.18965 1.8687819 4
28.237431 4.6984853 4
31.160196 1.9852538 4
34.416179 -3.0774346 4
36.850505 5.8628865 4
38.240071 11.685473 4
39.837069 9.2262018 4
31.956767 8.6893598 4
38.863219 6.5112004 4
32.435656 16.156828 4
32.171363 16.843525 4
30.314008 16.973353 4
32.295085 15.485375 4
53.163712 13.529684 4
33.458844 27.61561 4
33.554275 25.2197 4
36.115222 21.546311 4
44.446376 32.303015 4
35.989153 31.424377 4
32.874941 28.699099 4
36.813965 30.846875 4
32.425218 38.748288 4
34.519462 43.822184 4
34.811914 -11.464032 4
35.669173 -0.96587782 4
32.399539 3.1916899 4
34.881591 2.4636731 4
30.243878 3.0586778 4
37.814151 5.9011976 4
33.160984 6.1220115 4
36.11689 6.6356475 4
35.16547 7.1942187 4
30.938845 4.1389988 4
38.944867 10.129015 4
35.18612 12.660166 4
29.924596 12.302434 4
36.469509 15.797446 4
40.892142 18.598338 4
38.762876 16.566184 4
41.983148 21.498385 4
36.187899 14.758001 4
36.370378 18.160312 4
36.727228 22.069196 4
37.886705 24.103035 4
31.847978 23.268817 4
37.734382 24.396655 4
38.907457 37.627098 4
35.297326 40.280684 4
37.027023 -2.9407699 4
34.658572 -14.650153 4
36.901151 0.097741075 4
34.555844 -0.59830407 4
34.193259 1.0173339 4
34.624798 4.4792169 4
34.380288 4.220705 4
29.452069 4.8390086 4
36.821617 16.782096 4
36.903845 7.6464822 4
34.304777 16.486 4
36.296816 11.744121 4
39.749318 15.49248 4
35.795121 17.250907 4
34.903285 18.479962 4
30.373928 18.167312 4
33.704484 18.144047 4
38.263947 21.450573 4
37.271865 24.210448 4
34.535751 27.568817 4
33.262921 25.573822 4
34.501751 31.377459 4
37.22708 19.99513 4
33.138909 36.378915 4
37.103158 34.87169 4
31.880524 -2.9800189 4
38.558574 -1.9918568 4
31.675827 3.2910739 4
30.710386 4.1495666 4
33.859693 1.6502955 4
39.915203 6.7830911 4
37.234409 15.048282 4
37.169495 10.637584 4
36.026768 8.559983 4
36.233474 13.876638 4
36.696082 17.028805 4
37.899891 17.241365 4
35.083916 19.703578 4
43.798772 21.69147 4
32.652694 15.447028 4
39.683756 16.675549 4
36.538633 18.707214 4
34.841465 16.73747 4
38.62075 15.54127 4
37.501814 21.054974 4
36.707258 20.662851 4
38.286631 30.598714 4
38.185746 36.6881 4
31.653172 27.205163 4
29.953674 34.07306 4
40.445515 -2.2713121 4
35.320518 3.606842 4
33.274625 -4.2630255 4
35.67353 2.3719949 4
33.898279 5.5250423 4
33.373767 4.145975 4
41.479402 10.064362 4
35.828303 5.1902517 4
33.878869 7.9648165 4
35.262751 13.525952 4
33.697524 17.27751 4
39.33122 8.909304 4
37.671811 11.967691 4
35.217025 20.010788 4
37.679963 18.382055 4
38.380976 15.610259 4
34.211818 15.516343 4
34.884774 22.353197 4
35.408528 18.737046 4
34.462972 29.689706 4
33.835866 26.522955 4
34.748951 27.866752 4
35.318733 25.349501 4
28.599681 36.760186 4
35.375527 32.038587 4
32.004838 -3.4044631 4
38.259819 2.062345 4
34.844618 3.7669928 4
36.335706 2.5337898 4
36.934309 3.5307595 4
36.282459 7.00833 4
37.325672 9.7325547 4
36.337958 10.997846 4
34.219669 9.0006646 4
37.671627 13.852502 4
35.670332 15.772318 4
37.615175 14.579214 4
35.850026 11.842118 4
35.518611 16.410247 4
32.809357 19.379343 4
36.953296 25.646748 4
34.429384 20.527889 4
34.59013 20.204568 4
36.428875 22.571779 4
39.864055 21.655008 4
37.572564 25.044362 4
36.564333 25.46212 4
34.512159 30.241501 4
36.847003 26.434621 4
36.455387 33.852668 4
34.32065 -4.5688914 4
[...]
POINT_DATA 1250
SCALARS m double
LOOKUP_TABLE default
1
1
1
1
1
1
1
1
1
1
1
1
1
1
1
1
1
1
1
1
1
1
1
1
1
1
1
1
1
1
1
1
1
1
1
1
1
1
1
1
1
1
1
1
1
1
1
1
1
1
1
1
1
1
1
1
1
1
1
1
1
1
1
1
1
1
1
1
1
1
1
1
1
1
1
1
1
1
1
1
1
1
1
1
1
1
1
1
1
1
1
1
1
1
1
1
1
1
1
1
1
1
1
1
1
1
1
1
1
1
1
1
1
1
1
1
1
1
1
1
1
1
1
1
1
1
1
1
1
1
1
1
1
1
1
1
1
1
1
1
1
1
1
1
1
1
1
1
1
1
1
1
1
1
1
1
1
1
1
1
1
1
1
1
1
1
1
1
1
1
1
1
1
1
1
1
1
1
1
1
1
1
1
1
1
1
1
1
1
1
1
1
1
1
1
1
1
1
1
1
1
1
1
1
1
1
1
1
1
1
1
1
1
1
1
1
1
1
1
1
1
1
1
1
1
1
1
1
1
1
1
1
1
1
1
1
1
1
1
1
1
1
1
1
1
1
1
1
1
1
1
1
1
1
1
1
1
1
1
1
1
1
1
1
1
1
1
1
1
1
1
1
1
1
1
1
1
1
1
1
1
1
1
1
1
1
1
1
1
1
1
1
1
1
1
1
1
1
1
1
1
1
1
1
1
1
1
1
1
1
1
1
1
1
1
1
1
1
1
1
1
1
1
1
1
1
1
1
1
1
1
1
1
1
1
1
1
1
1
1
1
1
1
1
1
1
1
1
1
1
1
1
1
1
1
1
1
1
1
1
1
1
1
1
1
1
1
1
1
1
1
1
1
1
1
1
1
1
1
1
1
1
1
1
1
1
1
1
1
1
1
1
1
1
1
1
1
1
1
1
1
1
1
1
1
1
1
1
1
1
1
1
1
1
1
1
1
1
1
1
1
1
1
1
1
1
1
1
1
1
1
1
1
1
1
1
1
1
1
1
1
1
1
1
1
1
1
1
1
1
1
1
1
1
1
1
1
1
1
1
1
1
1
1
1
1
1
1
1
1
1
1
1
1
1
1
1
1
1
1
1
1
1
1
1
1
1
1
1
1
1
1
1
1
1
1
1
1
1
1
1
1
1
1
1
1
1
1
1
1
1
1
1
1
1
1
1
1
1
1
1
1
1
1
1
1
1
1
1
1
1
1
1
1
1
1
1
1
1
1
1
1
1
1
1
1
1
1
1
1
1
1
1
1
1
1
1
1
1
1
1
1
1
1
1
1
1
1
1
1
1
1
1
1
1
1
1
1
1
1
1
1
1
1
1
1
1
1
1
1
1
1
1
1
1
1
1
1
1
1
1
1
1
1
1
1
1
1
1
1
1
1
1
1
1
1
1
1
1
1
1
1
1
1
1
1
1
1
1
1
1
1
1
1
1
1
1
1
1
1
1
1
1
1
1
1
1
1
1
1
1
1
1
1
1
1
1
1
1
1
1
1
1
1
1
1
1
1
1
1
1
1
1
1
1
1
1
1
1
1
1
1
1
1
1
1
1
1
1
1
1
1
1
1
1
1
1
1
1
1
1
1
1
1
1
1
1
1
1
1
1
1
1
1
1
1
1
1
1
1
1
1
1
1
1
1
1
1
1
1
1
1
1
1
1
1
1
1
1
1
1
1
1
1
1
1
1
1
1
1
1
1
1
1
1
1
1
1
1
1
1
1
1
1
1
1
1
1
1
1
1
1
1
1
1
1
1
1
1
1
1
1
1
1
1
1
1
1
1
1
1
1
1
1
1
1
1
1
1
1
1
1
1
1
1
1
1
1
1
1
1
1
1
1
1
1
1
1
1
1
1
1
1
1
1
1
1
1
1
1
1
1
1
1
1
1
1
1
1
1
1
1
1
1
1
1
1
1
1
1
1
1
1
1
1
1
1
1
1
1
1
1
1
1
1
1
1
1
1
1
1
1
1
1
1
1
1
1
1
1
1
1
1
1
1
1
1
1
1
1
1
1
1
1
1
1
1
1
1
1
1
1
1
1
1
1
1
1
1
1
1
1
1
1
1
1
1
1
1
1
1
1
1
1
1
1
1
1
1
1
1
1
1
1
1
1
1
1
1
1
1
1
1
1
1
1
1
1
1
1
1
1
1
1
1
1
1
1
1
1
1
1
1
1
1
1
1
1
1
1
1
1
1
1
1
1
1
1
1
1
1
1
1
1
1
1
1
1
1
1
1
1
1
1
1
1
1
1
1
1
1
1
1
1
1
1
1
1
1
1
1
1
1
1
1
1
1
1
1
1
1
1
1
1
1
1
1
1
1
1
1
1
1
1
1
1
1
1
1
1
1
1
1
1
1
1
1
1
1
1
1
1
1
1
1
1
1
1
1
1
1
1
1
1
1
1
1
1
1
1
1
1
1
1
1
1
1
1
1
1
1
1
1
1
1
1
1
1
1
1
1
1
1
1
1
1
1
1
1
1
1
1
1
1
1
1
1
1
1
1
1
1
1
1
1
1
1
1
1
1
1
1
1
1
1
1
1
1
1
1
1
1
1
1
1
1
1
1
1
1
1
1
1
1
1
1
1
1
1
1
1
1
1
1
1
1
1
1
1
1
1
1
1
1
1
1
1
1
1
1
1
1
1
1
1
1
1
1
1
1
1
1
1
1
1
1
1
1
1
1
1
1
1
1
1
1
1
1
1
1
1
1
1
1
1
1
1
1
1
1
1
1
1
1
1
1
1
1
1
1
1
1
1
1
1
1
1
1
1
1
1
1
1
1
1
1
1
1
1
1
1
1
1
1
1
1
1
1
1
1
VECTORS v double
1.6624925 -8.8864306 0
3.7775361 -10.018681 0
-1.250735 -16.333225 0
17.232199 -0.47975682 0
7.0249291 -15.581663 0
-5.4017507 -0.29963356 0
-2.1349834 -23.007569 0
13.727807 -1.4778686 0
3.9782678 1.750681 0
4.6470533 -5.939955 0
1.8123327 -2.2787825 0
-3.9051028 -9.6302539 0
2.8776365 -6.4114448 0
-6.3798179 6.0122342 0
-6.9104998 -3.412884 0
-0.40286936 -6.2487318 0
10.030787 6.412625 0
-0.41972756 10.068243 0
13.628754 -20.943031 0
-1.3416746 -0.46551878 0
5.1386753 -7.8437355 0
-4.8830732 6.2918948 0
11.504277 -3.4504533 0
0.20851595 22.962113 0
1.7492414 11.115913 0
8.8399697 -9.0826405 0
-0.2522022 -9.634538 0
-8.9451316 -14.311905 0
4.1580458 -13.145563 0
12.551436 -22.585411 0
-7.4990872 4.3494508 0
-7.7638464 -7.7535923 0
0.62188392 -30.55575 0
8.9938508 -9.4068331 0
-11.121412 -3.4620752 0
13.79113 -6.9436282 0
-3.546512 -5.1521888 0
-10.063679 -8.8315685 0
5.2326357 -4.2983532 0
-7.743059 1.2317908 0
-1.2261776 3.9524026 0
-5.088563 5.2740832 0
-3.4397419 -1.5059204 0
-5.2814461 7.0586842 0
-6.4432154 10.401358 0
-0.29075271 1.2029477 0
1.6842704 12.812867 0
0.0026093782 13.187691 0
1.4688879 13.66397 0
2.7031032 11.982896 0
3.3082061 -9.9494353 0
3.1086743 -15.900924 0
2.0222357 -19.89994 0
-4.6568942 -9.876882 0
10.755175 -12.551503 0
-0.72718766 -5.969888 0
15.965542 -14.736006 0
-1.0550255 -1.0641341 0
-5.2963317 -0.010373921 0
9.7690629 1.0670102 0
1.6296217 -10.633956 0
13.696264 2.1851183 0
1.7164407 -9.2070744 0
-7.5112597 3.1143333 0
6.8104205 2.5481184 0
-13.445181 -7.8508591 0
4.0104167 -7.3346039 0
-0.12930832 -1.0992899 0
0.51873735 -12.228996 0
-0.7454297 3.4589498 0
7.4888791 -5.9424222 0
3.8344589 11.088533 0
7.1842874 4.2412048 0
-3.4022952 7.62571 0
-1.0768976 16.551824 0
3.9466542 -13.879275 0
-3.3258322 -4.9365489 0
-1.6091798 12.423212 0
5.1165188 -14.873534 0
7.0148166 -12.744968 0
-8.2135624 1.3518037 0
5.2735188 4.8456057 0
3.1159262 -11.490529 0
13.33587 -9.1154633 0
-1.4821534 10.30551 0
13.146306 -5.3174537 0
-6.5199221 -3.6131765 0
-9.8390298 -4.0849442 0
-8.162903 -9.5999503 0
12.802823 -6.327059 0
-1.3690726 -6.9134925 0
3.0676276 -3.891114 0
6.1894238 0.24608188 0
-6.3636524 -4.0696997 0
0.38342916 -2.1801653 0
-10.31805 -2.6469416 0
4.5450715 -3.9934447 0
-5.4094754 2.933158 0
0.037428656 3.9498453 0
0.47110466 14.494984 0
3.3724706 -12.746329 0
-5.5351166 -14.739295 0
-1.4667354 -13.532696 0
1.8964333 -3.6522912 0
-8.237624 -8.4670409 0
0.49984124 -8.6248242 0
-16.134827 3.6811961 0
0.67554857 -4.4019804 0
0.99222782 0.92781972 0
2.5352375 0.49005704 0
0.28007188 -14.729897 0
-2.8225331 -10.754007 0
-2.0017099 -0.32804363 0
-8.0703004 2.8859483 0
-5.3527155 -1.4356325 0
-5.113297 2.5058439 0
2.792295 6.1661923 0
-7.1952186 -5.1316153 0
1.1257463 -5.1960649 0
2.8585253 6.80748 0
5.1638133 1.9342161 0
0.54418832 10.779203 0
3.6903296 6.5054936 0
-2.4140465 9.5905737 0
3.6317444 17.95743 0
-2.3670073 -9.0004451 0
0.063624538 -22.510145 0
-5.0023649 6.7114796 0
-9.3467315 -5.1920888 0
-8.197606 0.76288624 0
-15.913495 -0.22678174 0
1.9614029 -5.0347551 0
-8.5353929 -5.2647183 0
-2.997787 10.84 0
13.278494 -0.78533802 0
0.12223614 -4.1563296 0
-8.7146711 -1.8518168 0
2.8551127 8.7764291 0
5.0725394 -2.6160655 0
8.5022623 8.1890923 0
5.4590699 5.7832632 0
0.6006367 5.0970221 0
-2.9139564 -2.7801122 0
-0.70101981 10.789791 0
-6.716502 6.0527198 0
6.9508092 7.2033937 0
-3.4402228 8.4388377 0
10.393165 -2.576919 0
2.7835797 9.3005122 0
0.54134353 13.242615 0
1.0967079 -11.34175 0
-7.1221573 -15.01762 0
-5.3126788 -16.02887 0
12.614351 -6.5674046 0
1.5195245 -7.4756442 0
6.6342608 -11.613015 0
12.015397 -14.741842 0
-3.8420572 6.0251167 0
-9.3410625 -2.3210855 0
8.808227 3.0442052 0
-9.5696632 -11.846318 0
3.5539707 7.7666174 0
-0.18584709 -0.85787812 0
0.42237234 3.2547213 0
-1.7066526 -7.2200694 0
-1.8408059 -8.1730331 0
0.24458802 -4.8854949 0
0.66367306 13.727177 0
-3.6324766 12.840335 0
-5.5119699 7.7277468 0
-13.221877 10.711891 0
-11.806969 10.216172 0
6.0774475 8.3182285 0
-6.1233611 0.46390961 0
-2.2847671 10.289364 0
7.9152496 -6.5258364 0
14.403343 -10.98079 0
0.10125408 -13.986744 0
3.03866 -1.423487 0
0.097632858 -9.6965123 0
-4.6924798 -16.491746 0
3.4179165 -12.326581 0
17.066916 -1.8291133 0
-2.7236355 -0.64126863 0
-10.357693 2.6307117 0
6.5072831 -0.036267628 0
-7.2446676 5.079461 0
10.826863 -3.7900696 0
-3.520532 -10.378787 0
-5.9742272 5.0738204 0
1.4840497 1.7736664 0
-17.303262 -0.42644206 0
3.9771128 8.6417735 0
-10.619132 9.5056031 0
15.965535 6.6480311 0
11.769678 8.1180356 0
-6.4646116 9.8327141 0
4.3113952 9.9569086 0
-6.6257715 0.25939241 0
6.2745354 8.821453 0
3.1963508 -0.86172405 0
8.8305072 -2.8275197 0
-0.39672597 -10.569975 0
0.73052919 -25.593663 0
8.3236109 -21.832483 0
1.758424 -0.86376036 0
-7.7876033 -2.5270332 0
5.8127422 1.717264 0
20.293285 -9.3467271 0
-1.203244 -2.7044327 0
4.5769941 5.812704 0
-1.6795417 2.2666554 0
0.22547472 3.4532225 0
-4.0293591 1.2349268 0
-0.77879164 7.2520177 0
-4.6319367 -2.5871656 0
14.357118 -2.7444446 0
-6.5455799 8.9101046 0
0.13518726 12.577627 0
1.4458256 -6.1280253 0
8.4646927 -2.2418686 0
-0.25708882 2.0815702 0
4.4155831 13.606854 0
-2.2406107 10.162458 0
2.6456623 12.396442 0
0.43695799 -18.924674 0
-9.9740482 -15.061018 0
3.8260824 -18.129615 0
-6.5266562 0.079115233 0
7.0423062 -3.4948115 0
-2.9236249 0.018376725 0
-3.0525923 2.6186899 0
-2.3147966 -8.4920647 0
-15.582153 -3.1759059 0
2.9938519 -13.527375 0
-2.5277044 -6.0760219 0
4.5852201 -3.1454016 0
-11.106722 7.6014982 0
-7.4500672 -6.8272394 0
2.5570992 9.1013927 0
-1.2132006 9.0162502 0
6.1697194 -8.8994746 0
7.8607235 7.0383809 0
-6.8804012 16.278317 0
-2.4105317 7.7945101 0
-4.7644733 14.54447 0
-0.22099479 13.215308 0
4.3043228 11.013615 0
3.7212772 11.916612 0
-5.8870669 10.903177 0
-1.3916419 -9.9784048 0
7.7625198 -2.6836378 0
4.2669356 -5.6883772 0
11.084837 -25.455939 0
4.9657835 0.020099148 0
-3.9108122 -12.195971 0
5.6789316 4.9804028 0
0.25597986 -2.6722978 0
6.5302493 3.3164217 0
-4.8752813 5.9152357 0
6.1031272 -6.3524742 0
-3.209057 -3.8435955 0
8.5523376 3.9486689 0
12.798195 4.8313539 0
-2.1935011 -10.40246 0
-7.6135232 -1.1856973 0
1.9434063 3.4294318 0
-2.6337985 13.440977 0
-11.804014 12.117505 0
-0.36269044 1.3120843 0
-7.1264166 10.902661 0
-2.5794429 -8.3469999 0
-5.1173677 0.89422858 0
4.2275237 -2.5793659 0
0.68633258 1.0608913 0
0.83129008 -12.772028 0
1.1175476 -17.549575 0
-7.5535478 -2.1303181 0
-0.47009655 14.874578 0
-13.599436 -6.3607888 0
14.120524 -2.3732946 0
9.1765047 -10.919287 0
-3.1669513 -5.9747325 0
11.893193 8.5048322 0
4.9875151 -12.97122 0
5.1261676 -13.863182 0
4.0087634 -2.1749163 0
4.3241262 -9.959964 0
11.334318 -2.145168 0
-4.2581089 1.8910657 0
-6.8369144 -6.9557476 0
-6.3191497 -5.7725231 0
-0.45266997 -1.46229 0
-3.1356342 7.3313084 0
-0.55102045 7.0982237 0
8.467381 4.0985142 0
4.8220141 -1.1394404 0
-3.2557322 10.82112 0
-5.9479686 8.3013541 0
3.3742083 9.8830455 0
4.27374 -8.0766441 0
-3.2885775 -10.204889 0
4.9968738 -1.2336 0
3.575078 -10.537673 0
-0.59521598 -11.854422 0
-0.86626316 -6.1057784 0
4.8160643 2.2902573 0
-1.8178703 2.8694919 0
1.9414717 -0.16060916 0
0.40981603 2.0644559 0
2.2055964 0.90309138 0
0.9723332 8.1597734 0
-3.1248064 1.1049786 0
-5.69186 9.1594973 0
8.4775932 -2.7898826 0
11.979384 -7.2830737 0
-13.716556 12.065266 0
-3.2141506 4.6998361 0
6.3534928 -8.0839588 0
15.697056 5.9561084 0
7.300064 6.4188511 0
4.2667569 13.681096 0
10.309644 6.7974948 0
-4.5505204 9.4721806 0
4.6944552 19.014254 0
0.34327117 -14.635428 0
9.4729017 -10.124313 0
-11.95066 -9.3342341 0
2.8462154 -4.9112626 0
-2.2386727 4.2326483 0
-7.8803866 -2.8063027 0
-4.2949213 -9.6015483 0
-1.5816263 -1.8076667 0
-0.61169491 -5.96365 0
-14.591005 -6.3155814 0
-3.4340068 6.0302949 0
-9.8539458 -2.215862 0
8.0594511 1.4347607 0
-7.5737289 9.743036 0
1.3967656 -8.3484136 0
12.0747 2.0891748 0
18.941535 4.7729772 0
7.8377758 -13.041661 0
-1.1054949 -1.7165112 0
4.4685963 8.3122807 0
-3.191551 -0.17528542 0
2.9831608 -7.5484182 0
21.608968 -10.308711 0
0.92426029 11.820542 0
5.9413754 17.889679 0
-0.33054056 -16.17032 0
2.2112749 -15.761666 0
9.5487301 0.71103431 0
1.7458115 -9.614961 0
-0.70355199 -6.9218094 0
0.11332768 -0.64034464 0
0.57413485 -5.9561091 0
-8.7503178 -8.933316 0
-7.109634 6.9282797 0
-0.65297548 2.1831857 0
-3.4819757 7.3766591 0
1.8756918 4.4540515 0
-1.717088 4.7499843 0
1.5800703 1.2498296 0
0.71283624 -2.4765993 0
-9.1091179 -3.887139 0
-4.3703005 1.6063974 0
-1.1536398 -4.9385074 0
-4.9476234 7.8649388 0
-5.0226216 10.186567 0
-0.39069576 -5.5474064 0
4.1224774 10.444691 0
-1.3511851 0.64569077 0
-4.1168831 9.1752076 0
-1.1638386 11.479489 0
-1.6924967 -18.608717 0
1.9145659 -8.7676787 0
-7.2019478 1.1223529 0
-7.10856 -2.0740878 0
-3.1357578 -9.9265836 0
13.795904 -0.40598955 0
17.859988 13.586069 0
-4.2263031 -10.274718 0
-0.58053714 8.8322051 0
-5.9174412 -1.8258534 0
1.570418 10.737616 0
-7.995612 -1.5286118 0
1.5190903 -2.0628333 0
21.540445 4.971035 0
-6.4624261 -4.9332725 0
5.139032 2.4508542 0
-0.95193843 10.052018 0
-10.654586 -11.372679 0
3.362597 4.5677346 0
-6.4317569 6.9744408 0
-0.27339032 2.2618575 0
3.054881 5.7780948 0
-0.28230418 12.872657 0
-3.6927236 14.498163 0
-1.3002856 3.5884736 0
8.0559615 -6.6373009 0
-7.8648463 -6.971999 0
-2.3167867 -12.467073 0
-9.3319772 -7.9940746 0
-2.1230581 -0.75429736 0
-2.9558554 -15.316201 0
3.3087628 -1.7043078 0
-1.2453649 11.070559 0
-9.3546387 3.7052144 0
-4.2602577 2.3857652 0
13.538527 0.75443376 0
2.2933479 7.7412323 0
7.1643509 -5.0463148 0
-3.7149386 9.335957 0
0.21056266 3.0282878 0
3.1288677 -4.0511308 0
-11.94263 -5.5478269 0
-8.9162982 -5.8359524 0
-8.8133885 -6.7986038 0
-0.60872605 15.328216 0
-4.4391122 3.5842897 0
-14.700759 5.2365673 0
-3.2859712 4.5209164 0
-3.3333356 16.554364 0
0.94526519 13.056166 0
-13.610496 -10.78217 0
5.5773148 0.63330342 0
-5.4124209 -5.7904881 0
-5.8847482 8.0045951 0
-10.451228 -4.602316 0
2.5687397 -5.7027128 0
-3.9493098 3.9542029 0
-7.197919 -11.567546 0
-8.4958436 -0.82399494 0
2.6121719 -4.1467545 0
-6.2599067 2.6028537 0
0.2797189 -1.1331401 0
0.98127606 -9.7274554 0
2.9776759 6.7001804 0
-6.2251441 8.7799228 0
-4.8013557 -3.1861069 0
-0.21060068 1.1276814 0
-0.18720072 -5.0520991 0
-11.152341 5.0229401 0
4.2645815 4.2036668 0
-3.8608293 5.2905994 0
11.494229 11.454281 0
1.0327393 -1.8646869 0
9.6019176 6.6105801 0
1.4475815 5.7750368 0
-5.7587332 -8.9722331 0
-0.52125824 -15.461986 0
-1.7648292 0.044122226 0
-11.355982 -11.308951 0
4.5969017 -1.6949865 0
-1.5521277 -0.3656066 0
1.354872 -10.839325 0
9.1069558 -1.030993 0
4.4222033 -9.9074875 0
8.1319717 0.76030295 0
-4.4706988 3.283511 0
11.640047 9.872197 0
6.7397776 -2.8313747 0
7.1083044 0.42111603 0
5.1356597 4.9678246 0
-6.791171 -8.4323882 0
5.6422867 12.661499 0
0.16186724 6.4674952 0
3.0843078 2.5259686 0
-7.3279819 6.1113608 0
-6.706947 10.638015 0
-4.0286767 7.4973014 0
-7.1970946 -1.6862629 0
-1.2792761 -2.0548236 0
-2.4879128 8.151669 0
3.2786445 -8.860328 0
5.8486226 -6.1513883 0
-3.9872548 -3.7545756 0
-8.7177376 -12.427315 0
-7.5263473 4.232572 0
-7.4833875 -1.902683 0
-2.4835875 -11.149652 0
-3.3594504 -3.9650294 0
1.2382604 -4.3945076 0
-8.8854188 1.4616227 0
5.0134323 0.59466441 0
2.2976133 7.3215014 0
-3.647647 14.552931 0
5.5424775 -1.4908181 0
6.7207845 -4.5973166 0
1.8753649 7.8333235 0
-1.2205871 -1.6372493 0
-0.81051699 1.4893069 0
1.6013147 -9.6655989 0
-14.269925 8.5592134 0
-11.257928 4.0285539 0
-3.0601414 8.906235 0
-0.5603876 -4.1385163 0
-10.967154 0.91817374 0
5.6339582 6.577793 0
-3.5892899 -10.013957 0
1.9561128 3.5328527 0
-3.8452538 -8.3715849 0
6.4847495 0.87397624 0
-7.8471891 -13.993754 0
-16.30906 -15.80278 0
9.3218056 -8.6640355 0
13.081984 -16.874621 0
3.0982142 -5.2506072 0
4.2642716 -9.0739039 0
6.6626735 -1.3088465 0
-1.7128695 -4.3306646 0
-5.1248134 -3.0394932 0
11.401908 12.042395 0
9.2539501 5.6133605 0
-3.6478773 1.8091411 0
-8.754793 9.2627104 0
-3.8730144 -4.2068319 0
3.9314864 7.3445339 0
8.1164798 6.6785106 0
3.6500462 9.1206453 0
-8.9301484 6.3120248 0
-5.1055063 -0.078786947 0
-3.6371362 3.2843161 0
0.095711856 14.846809 0
2.8478968 -21.698248 0
0.1891132 7.3850536 0
-0.29545326 4.0828707 0
-10.974913 -6.7599309 0
-1.706619 -16.18517 0
-2.7782664 -3.7735967 0
-5.0923031 -4.1895412 0
-0.55314585 -6.60372 0
8.6722426 7.0941685 0
-13.465685 -3.9609182 0
-3.0145403 1.3238319 0
-1.6732153 -1.6941422 0
5.0519611 2.1032508 0
18.701665 -5.4315146 0
-2.3419787 -1.6476184 0
-2.0383489 7.2135307 0
9.1240979 -11.714114 0
0.49458185 1.4294625 0
17.276679 7.895918 0
-1.1296068 7.3222278 0
-2.535198 9.8430626 0
4.1346812 2.3765038 0
-7.7710527 -4.5731494 0
-5.9710545 9.8413684 0
-8.0912994 2.1231626 0
-2.7859919 -0.02368485 0
-3.1363037 -5.1869212 0
7.0566828 -7.5061875 0
-11.084394 -0.85914287 0
-1.5382882 -3.5245419 0
-2.1176244 -8.2536288 0
4.1450185 4.0249956 0
11.352971 5.2956769 0
8.07285 4.2136469 0
-7.5382243 6.1934927 0
9.9264352 -2.4456898 0
4.8120772 4.1615044 0
3.2942233 10.004986 0
5.9413741 -4.3466235 0
5.4575299 -0.080384798 0
-1.9162568 1.549007 0
4.8716091 8.5510065 0
3.9610598 -2.3009816 0
7.761773 4.1913633 0
6.1579679 13.284765 0
-5.6176648 -0.81235013 0
4.2804779 5.5127372 0
-6.8185396 2.1255717 0
-11.423094 12.120529 0
-7.115605 -2.3037341 0
-10.00859 0.045812326 0
1.9597837 -0.999802 0
-9.7739854 -1.7281475 0
8.7496837 -7.1919875 0
6.5875551 0.032693395 0
8.4410938 -11.914299 0
-4.5868866 4.6754624 0
2.2232616 4.6419622 0
-8.9227049 5.717749 0
4.0425609 1.6918066 0
10.563563 2.6206967 0
13.279622 4.7838288 0
-3.4911409 6.391384 0
-5.8647177 4.7549508 0
4.6396368 0.79302577 0
3.014774 8.5028945 0
-3.0233323 4.8832139 0
14.08639 2.6865009 0
-2.178906 -4.2574096 0
-7.2362144 1.0904867 0
4.2727403 -0.33240159 0
-1.275698 14.089244 0
-4.7850522 3.8895835 0
0.61704303 6.8109094 0
-9.9995319 -0.057457344 0
-13.624726 -12.038522 0
-5.5771239 -1.243928 0
-11.305998 -0.67554354 0
5.4710822 -3.4425057 0
-5.903138 1.9949007 0
4.1163144 -0.0004644436 0
7.7897145 -5.4888861 0
7.8400142 -13.759969 0
10.865733 -2.3673022 0
12.870661 4.3469837 0
5.0481977 -12.0017 0
0.35078306 -1.5608175 0
6.1634027 -0.099765205 0
2.2935285 -2.8146888 0
-11.813381 3.1516153 0
-2.2158255 -3.1055396 0
-4.0876291 1.5716169 0
-5.7994559 1.3522595 0
-3.220605 9.614569 0
4.547723 11.893999 0
-2.6337195 -2.2452591 0
1.8701208 -2.1465303 0
-9.7236021 -0.20425761 0
-3.337295 -8.1407015 0
-9.9510796 -0.11127692 0
9.3664052 -3.8409628 0
-6.5248935 3.2400143 0
4.0856364 -11.251979 0
6.1488006 -10.135259 0
-0.26115533 2.4275516 0
-5.1474004 -9.6548713 0
4.4361798 -7.0332252 0
-0.36274821 9.4874119 0
-0.092748206 -3.6218235 0
-9.1003228 2.065715 0
0.57422719 0.38612664 0
15.66746 -10.395046 0
-4.0145883 0.65058429 0
-3.7751581 15.641388 0
-0.39955861 3.2065792 0
4.5639826 0.62339822 0
-1.0999061 9.8288243 0
-13.531205 7.4281965 0
-6.1431276 14.929487 0
1.4193271 12.573881 0
-8.0548389 13.846063 0
3.7397973 17.669915 0
619808.48 -383949.33 0
-2.6282259 22.954801 0
-4.4983419 10.081675 0
-1.2976524 -13.92553 0
-2.3074115 -0.010866989 0
-5.177552 -7.1284958 0
3.1776662 -14.118277 0
-5.7227656 10.766369 0
-3.8448746 -20.134392 0
20.620339 -11.864598 0
4.6059053 -10.181757 0
-6.9457773 -4.0656917 0
-20.304475 -11.300591 0
-4.6214767 -14.856079 0
-4.3374786 -9.1768813 0
-5.6505929 5.5662611 0
-0.33208546 -0.75080206 0
9.0327459 9.420838 0
1.6388494 -1.1022866 0
-6.9591634 5.8999919 0
0.33645112 -3.0199298 0
-3.6957633 10.950938 0
-6.7948216 22.648209 0
-3.3083298 11.772788 0
5.4171681 6.9696384 0
10.020685 10.871285 0
-5.4885204 5.2404751 0
-1.4739174 21.821419 0
8.2354312 -6.0208538 0
-0.30913074 -13.580643 0
2.2700896 -7.3905514 0
1.1816497 -10.285477 0
-5.1731746 -2.8017513 0
10.096808 2.5695605 0
-1.3097011 -3.1726807 0
5.8765252 -9.827104 0
-9.3238715 8.1039689 0
-0.47288864 -0.82533843 0
0.93910885 -5.4890863 0
12.736537 -10.111072 0
0.9286234 3.9339275 0
1.1882396 -0.54520363 0
7.4829851 11.434333 0
6.7214414 12.45223 0
9.5537298 -1.6014422 0
10.928084 6.6593332 0
13.198438 -2.5175236 0
3.0582172 -1.2378913 0
4.2228964 20.671548 0
-2.3380565 11.452808 0
-0.41490584 9.7944837 0
-6.5902751 10.472283 0
-4.6864113 4.708787 0
-6.5486741 -6.7367991 0
-1.9602014 -10.561039 0
0.34395928 -10.706254 0
2.3862876 -5.0656628 0
6.5169158 -1.9649145 0
-5.2100291 -8.8996706 0
-11.226382 -13.903151 0
1.511364 -8.8948631 0
0.28736701 -7.1166652 0
5.4282062 -6.5844506 0
9.1127423 -0.1616548 0
2.3527589 1.2603673 0
-9.8109132 4.1386416 0
5.3454775 -2.8993266 0
-1.0082595 3.4711031 0
20.917833 2.6646341 0
19.581569 -14.906946 0
8.382388 -0.57810114 0
-0.76865505 -9.0385878 0
20.515044 6.3124064 0
7.8416536 -4.3223314 0
-4.526653 26.330997 0
7.4197222 12.440519 0
-2.0871384 -2.4420402 0
7.0375281 8.2927184 0
9.1471419 -9.843548 0
-0.9673917 -3.8738823 0
-1.9172602 2.5400511 0
9.9587431 -0.030823889 0
7.8996008 -29.429058 0
1.5549014 -4.6551446 0
-4.2650049 -12.49243 0
4.6133018 -7.192457 0
-1.6918364 4.1233726 0
9.4395629 -11.104899 0
0.78735694 5.1157244 0
-10.780312 1.2109896 0
8.0144826 1.899578 0
-3.5208002 -1.9980496 0
-616227.85 387734.05 0
8.7395286 9.6906514 0
7.0717447 -1.7681231 0
-11.843394 2.1391855 0
-6.2170673 10.293303 0
-1.6541163 18.04294 0
-6.4135896 6.0591143 0
1.3662146 23.701931 0
-0.24139942 16.819439 0
4.4695031 16.235696 0
11.165805 14.687316 0
5.539439 -15.659486 0
1.370504 -13.177967 0
5.0952252 -19.939599 0
-5.2852125 -11.548438 0
-3.128063 4.321609 0
-1.2588684 -1.4214759 0