# vtk DataFile Version 4.0
hesp visualization file
ASCII
DATASET UNSTRUCTURED_GRID
POINTS 1250 double
28.555553 0.76343019 4
30.19021 0.48719348 4
31.546809 4.7073258 4
29.185814 6.3002343 4
30.874342 4.3497124 4
32.262611 5.9709243 4
32.62698 4.74333 4
32.118048 9.1547408 4
30.34495 9.7442407 4
29.748662 9.950095 4
32.327705 11.495537 4
28.709262 15.052716 4
30.707156 14.309961 4
32.030544 14.391601 4
29.852253 18.534185 4
32.759443 15.903577 4
28.335183 19.749475 4
30.234938 21.802772 4
30.056438 22.400336 4
29.693855 24.463156 4
30.919415 22.176085 4
30.076069 25.718454 4
30.353069 24.166524 4
30.539997 27.862344 4
29.433392 29.372623 4
35.373417 -3.5874821 4
28.857188 3.8581608 4
29.466331 -0.4232903 4
30.556317 5.1760152 4
30.347513 3.5589711 4
30.093777 4.2719661 4
27.954395 4.2824563 4
29.162012 7.2356307 4
29.337702 7.8652931 4
29.924059 9.6633436 4
30.069936 13.225115 4
29.808192 11.556609 4
28.325957 14.614528 4
26.055042 14.31862 4
31.076907 14.816416 4
29.953467 21.085396 4
29.869367 16.818603 4
28.102149 19.500534 4
30.650709 20.945257 4
32.01575 20.969152 4
30.809969 25.816631 4
32.030925 23.004556 4
28.428329 27.401038 4
29.215716 30.636748 4
32.373624 29.17784 4
26.660955 2.0165268 4
30.255453 -2.2669353 4
30.732975 2.9856003 4
33.380657 4.7189442 4
29.841479 1.9343369 4
32.987858 4.4510328 4
32.066942 4.4368909 4
31.125951 8.1669006 4
30.842783 9.5972052 4
32.030099 10.656362 4
32.18946 11.177854 4
30.605525 11.761837 4
30.793339 11.208069 4
32.813471 11.342389 4
31.128053 14.243298 4
31.188411 15.075352 4
30.86818 16.951454 4
32.224552 18.217646 4
30.944892 16.606528 4
31.318346 22.38677 4
30.213613 19.722643 4
31.7921 21.507269 4
29.928654 22.772466 4
31.172466 26.789932 4
32.025759 26.903144 4
34.911287 -5.9104744 4
31.076668 0.0062858086 4
30.718233 5.4707873 4
31.046198 3.2794463 4
28.704657 5.8373454 4
30.333404 7.6058683 4
29.785149 8.622577 4
29.615181 9.0110805 4
28.846979 10.941379 4
33.446689 10.700688 4
29.282488 14.943435 4
32.29437 13.131886 4
30.074605 16.081155 4
30.852703 19.586945 4
30.196167 15.449059 4
31.288018 15.54343 4
30.816156 18.240376 4
32.197203 16.880395 4
31.330422 19.46142 4
33.382182 20.464242 4
33.34785 20.132685 4
31.52188 22.604683 4
31.207177 23.224919 4
29.660398 26.760554 4
32.236344 34.331484 4
32.874265 -1.6645723 4
31.838683 -0.51607605 4
35.255348 2.834864 4
33.536458 5.2028557 4
30.940293 3.5116494 4
33.698509 6.319354 4
33.315667 6.3481015 4
33.349766 7.4121023 4
33.329175 8.5642969 4
33.267699 9.7857197 4
33.209465 11.013065 4
33.685275 11.553622 4
33.693004 12.70624 4
33.771872 13.740092 4
33.607007 14.979302 4
33.672185 16.391337 4
33.231373 17.01314 4
32.600088 20.056837 4
31.397512 19.156112 4
34.532405 20.714568 4
33.881167 21.914496 4
33.166547 21.616466 4
33.522414 23.086539 4
34.011833 26.711919 4
30.549966 27.218436 4
29.459678 -0.96377002 4
30.34811 2.6481753 4
34.579303 6.2597161 4
35.295821 7.7756764 4
35.13618 7.1726411 4
35.090649 8.3448408 4
35.102855 9.4434193 4
35.172018 10.518321 4
35.17748 11.589525 4
35.04219 13.197048 4
35.005249 14.271915 4
35.026237 15.69715 4
35.330017 16.751615 4
34.814137 17.602891 4
33.936692 19.304739 4
34.057473 20.659837 4
34.24641 21.462315 4
34.992962 21.61073 4
34.619152 23.225505 4
35.011728 24.320007 4
33.911284 26.135578 4
33.144606 24.202432 4
34.153224 27.815447 4
33.824569 29.50745 4
29.271243 28.623689 4
33.365747 4.4567798 4
31.218244 -2.4500881 4
37.193873 5.0191744 4
31.780382 3.3866943 4
30.647559 6.4343661 4
30.356193 6.5260731 4
32.070493 7.2605512 4
31.858167 9.9480386 4
30.456614 10.704713 4
30.812384 10.345719 4
33.44781 12.673173 4
30.686336 13.415714 4
31.514101 14.262218 4
33.141069 15.270382 4
30.901073 15.84609 4
31.183423 17.940087 4
31.940124 18.346923 4
31.767881 20.696674 4
32.330925 22.925489 4
31.33596 21.966394 4
33.173589 23.030669 4
32.552759 24.41193 4
31.360676 24.837695 4
33.407613 23.845529 4
31.795052 29.121994 4
38.345637 -1.7210969 4
32.943458 3.6961457 4
31.902864 2.5858677 4
35.675685 6.0270751 4
33.26802 6.7972757 4
31.829763 5.8377758 4
31.529572 8.0478399 4
31.533099 9.1498458 4
32.271025 10.080352 4
34.975588 10.190644 4
31.51173 12.792364 4
31.845967 14.012732 4
31.522655 15.085809 4
31.52297 16.187691 4
34.81314 16.251556 4
33.744342 18.208854 4
34.139669 19.875559 4
33.497419 20.721087 4
31.881243 21.83907 4
31.564256 22.848609 4
31.702111 24.14867 4
32.155306 26.06903 4
34.766276 26.451874 4
32.59217 27.095669 4
37.488245 31.480979 4
33.437647 1.8642654 4
35.854634 2.5141646 4
34.619577 1.3439069 4
33.415117 2.2172482 4
34.777492 3.7917147 4
33.825858 3.9397918 4
34.510766 7.124549 4
34.569997 9.0291914 4
34.556876 10.146437 4
34.640764 11.324193 4
34.501975 12.37378 4
34.464681 13.479339 4
34.219634 14.445493 4
34.290012 15.613218 4
34.804199 15.810562 4
34.322653 17.857239 4
33.443085 16.631767 4
33.463132 17.660975 4
33.481996 18.818319 4
33.878407 19.731428 4
35.497117 23.242009 4
34.541238 24.635857 4
36.148369 24.512587 4
35.60197 26.863444 4
35.69056 27.307208 4
33.172336 0.71740283 4
32.335425 1.8907299 4
35.393641 3.7587122 4
36.2983 6.4750306 4
35.834203 6.6608271 4
35.970793 7.5993547 4
35.965091 8.7395439 4
35.967143 9.8552647 4
35.967185 10.977565 4
35.97834 12.070534 4
35.96988 13.402799 4
35.966363 14.514414 4
35.984993 15.678056 4
35.980486 16.804669 4
35.972589 17.838132 4
36.61038 19.544933 4
36.657312 20.614004 4
36.647791 21.742572 4
36.149758 22.710577 4
36.902824 23.973025 4
35.974602 25.124513 4
36.039806 26.023077 4
35.927982 27.436842 4
35.122494 28.008282 4
32.820409 28.054848 4
33.904804 0.52148169 4
33.936136 2.2436324 4
33.937976 3.3878119 4
34.06201 4.2169166 4
36.618959 4.8470916 4
36.343976 5.5453009 4
36.441517 6.8716306 4
36.388871 8.0296654 4
36.400727 9.1402899 4
36.396413 10.267311 4
36.396267 11.389881 4
36.374457 12.532005 4
36.458105 13.525072 4
36.456844 14.651403 4
35.763215 16.199455 4
35.675657 16.628949 4
35.782832 18.616326 4
35.661061 18.988152 4
35.627525 20.171869 4
35.629611 21.284153 4
35.977465 23.320892 4
35.310432 23.937004 4
34.391987 25.181263 4
36.035445 26.609739 4
33.948398 28.826146 4
37.455097 -1.6870748 4
35.071369 2.2427354 4
35.070106 3.3704595 4
37.613597 6.1298705 4
35.085516 6.5127351 4
36.20701 7.0934813 4
35.401685 8.3198903 4
35.40897 9.4490916 4
35.451935 10.56296 4
35.551548 11.685911 4
35.405027 12.811579 4
35.41808 13.946046 4
35.309344 14.960036 4
35.308855 15.388923 4
36.472852 17.636941 4
36.95332 18.056901 4
35.558447 19.72842 4
35.570904 20.85691 4
35.546123 21.962476 4
35.238682 22.229131 4
35.688055 23.934103 4
36.006458 25.61068 4
35.068534 25.814766 4
37.533354 26.945044 4
37.57693 29.913019 4
36.191614 1.1255151 4
37.08403 2.555474 4
36.191955 3.3673607 4
36.19136 4.4925873 4
38.677362 6.3589062 4
38.670594 7.5289972 4
38.670605 8.6514456 4
38.670604 9.7739081 4
38.670605 10.89637 4
38.670605 12.018832 4
38.670605 13.141294 4
38.670605 14.263753 4
38.670596 15.386259 4
38.670655 16.50845 4
38.67059 17.631217 4
38.82224 18.405972 4
37.628579 20.012771 4
37.628848 21.135436 4
37.628849 22.257897 4
37.628853 23.380363 4
37.628994 24.502907 4
37.628997 25.625377 4
38.136929 26.257295 4
37.626312 27.872212 4
36.190987 28.059318 4
37.314462 1.1255848 4
37.313045 2.2457417 4
37.314457 3.3673693 4
37.314407 4.4899407 4
37.312941 5.6091492 4
37.307802 6.7509216 4
37.307834 7.8733779 4
37.307835 8.9958406 4
37.307835 10.118303 4
37.307835 11.240765 4
37.307835 12.363227 4
37.307833 13.485689 4
37.307833 14.608153 4
37.307844 15.730596 4
37.307834 16.853082 4
37.307653 17.97562 4
38.201993 18.797745 4
38.351418 19.57339 4
38.351413 20.695861 4
38.351412 21.818322 4
38.351275 22.940743 4
38.351282 24.063206 4
38.351239 25.185661 4
38.425293 26.323367 4
37.315762 28.055611 4
38.436931 1.1255843 4
38.43693 2.2449364 4
38.436931 3.3673859 4
38.43693 4.48985 4
38.436756 5.6125918 4
38.436661 6.7338337 4
38.436575 7.8556501 4
38.436575 8.9781122 4
38.436575 10.100574 4
38.436575 11.223036 4
38.436575 12.345498 4
38.436575 13.46796 4
38.436575 14.590422 4
38.436575 15.712884 4
38.436575 16.83535 4
38.436545 17.95842 4
38.435627 19.080825 4
38.436382 20.204037 4
38.436382 21.326499 4
38.436382 22.448961 4
38.436382 23.571424 4
38.436382 24.693886 4
38.436358 25.816377 4
38.436431 26.938649 4
38.436915 28.058421 4
39.559393 1.1255842 4
39.559393 2.2449363 4
39.559393 3.3673861 4
39.559393 4.4898483 4
39.559392 5.6123109 4
39.55939 6.7347722 4
39.55939 7.8572342 4
39.55939 8.9796962 4
39.55939 10.102158 4
39.55939 11.22462 4
39.55939 12.347082 4
39.55939 13.469544 4
39.55939 14.592006 4
39.55939 15.714469 4
39.55939 16.836931 4
39.559388 17.959393 4
39.55939 19.081854 4
39.559392 20.204317 4
39.559392 21.326779 4
39.559392 22.449241 4
39.559392 23.571703 4
39.559392 24.694165 4
39.559392 25.816627 4
39.559392 26.939077 4
39.559393 28.058429 4
40.681856 1.1255842 4
40.681856 2.2449363 4
40.681856 3.3673861 4
40.681856 4.4898482 4
40.681856 5.6123102 4
40.681856 6.7347723 4
40.681856 7.8572343 4
40.681856 8.9796964 4
40.681856 10.102158 4
40.681856 11.22462 4
40.681856 12.347083 4
40.681856 13.469545 4
40.681856 14.592007 4
40.681856 15.714469 4
40.681856 16.836931 4
40.681856 17.959393 4
40.681856 19.081855 4
40.681856 20.204317 4
40.681856 21.326779 4
40.681856 22.449241 4
40.681856 23.571703 4
40.681856 24.694165 4
40.681856 25.816627 4
40.681856 26.939077 4
40.681856 28.058429 4
41.804318 1.1255842 4
41.804318 2.2449363 4
41.804318 3.3673861 4
41.804318 4.4898482 4
41.804318 5.6123103 4
41.804318 6.7347723 4
41.804318 7.8572344 4
41.804318 8.9796964 4
41.804318 10.102158 4
41.804318 11.224621 4
41.804318 12.347083 4
41.804318 13.469545 4
41.804318 14.592007 4
41.804318 15.714469 4
41.804318 16.836931 4
41.804318 17.959393 4
41.804318 19.081855 4
41.804318 20.204317 4
41.804318 21.326779 4
41.804318 22.449241 4
41.804318 23.571703 4
41.804318 24.694165 4
41.804318 25.816627 4
41.804318 26.939077 4
41.804318 28.058429 4
42.926785 1.1255842 4
42.926781 2.2449365 4
42.926781 3.3673863 4
[...]
POINT_DATA 1250
SCALARS m double
LOOKUP_TABLE default
1
1
1
1
1
1
1
1
1
1
1
1
1
1
1
1
1
1
1
1
1
1
1
1
1
1
1
1
1
1
1
1
1
1
1
1
1
1
1
1
1
1
1
1
1
1
1
1
1
1
1
1
1
1
1
1
1
1
1
1
1
1
1
1
1
1
1
1
1
1
1
1
1
1
1
1
1
1
1
1
1
1
1
1
1
1
1
1
1
1
1
1
1
1
1
1
1
1
1
1
1
1
1
1
1
1
1
1
1
1
1
1
1
1
1
1
1
1
1
1
1
1
1
1
1
1
1
1
1
1
1
1
1
1
1
1
1
1
1
1
1
1
1
1
1
1
1
1
1
1
1
1
1
1
1
1
1
1
1
1
1
1
1
1
1
1
1
1
1
1
1
1
1
1
1
1
1
1
1
1
1
1
1
1
1
1
1
1
1
1
1
1
1
1
1
1
1
1
1
1
1
1
1
1
1
1
1
1
1
1
1
1
1
1
1
1
1
1
1
1
1
1
1
1
1
1
1
1
1
1
1
1
1
1
1
1
1
1
1
1
1
1
1
1
1
1
1
1
1
1
1
1
1
1
1
1
1
1
1
1
1
1
1
1
1
1
1
1
1
1
1
1
1
1
1
1
1
1
1
1
1
1
1
1
1
1
1
1
1
1
1
1
1
1
1
1
1
1
1
1
1
1
1
1
1
1
1
1
1
1
1
1
1
1
1
1
1
1
1
1
1
1
1
1
1
1
1
1
1
1
1
1
1
1
1
1
1
1
1
1
1
1
1
1
1
1
1
1
1
1
1
1
1
1
1
1
1
1
1
1
1
1
1
1
1
1
1
1
1
1
1
1
1
1
1
1
1
1
1
1
1
1
1
1
1
1
1
1
1
1
1
1
1
1
1
1
1
1
1
1
1
1
1
1
1
1
1
1
1
1
1
1
1
1
1
1
1
1
1
1
1
1
1
1
1
1
1
1
1
1
1
1
1
1
1
1
1
1
1
1
1
1
1
1
1
1
1
1
1
1
1
1
1
1
1
1
1
1
1
1
1
1
1
1
1
1
1
1
1
1
1
1
1
1
1
1
1
1
1
1
1
1
1
1
1
1
1
1
1
1
1
1
1
1
1
1
1
1
1
1
1
1
1
1
1
1
1
1
1
1
1
1
1
1
1
1
1
1
1
1
1
1
1
1
1
1
1
1
1
1
1
1
1
1
1
1
1
1
1
1
1
1
1
1
1
1
1
1
1
1
1
1
1
1
1
1
1
1
1
1
1
1
1
1
1
1
1
1
1
1
1
1
1
1
1
1
1
1
1
1
1
1
1
1
1
1
1
1
1
1
1
1
1
1
1
1
1
1
1
1
1
1
1
1
1
1
1
1
1
1
1
1
1
1
1
1
1
1
1
1
1
1
1
1
1
1
1
1
1
1
1
1
1
1
1
1
1
1
1
1
1
1
1
1
1
1
1
1
1
1
1
1
1
1
1
1
1
1
1
1
1
1
1
1
1
1
1
1
1
1
1
1
1
1
1
1
1
1
1
1
1
1
1
1
1
1
1
1
1
1
1
1
1
1
1
1
1
1
1
1
1
1
1
1
1
1
1
1
1
1
1
1
1
1
1
1
1
1
1
1
1
1
1
1
1
1
1
1
1
1
1
1
1
1
1
1
1
1
1
1
1
1
1
1
1
1
1
1
1
1
1
1
1
1
1
1
1
1
1
1
1
1
1
1
1
1
1
1
1
1
1
1
1
1
1
1
1
1
1
1
1
1
1
1
1
1
1
1
1
1
1
1
1
1
1
1
1
1
1
1
1
1
1
1
1
1
1
1
1
1
1
1
1
1
1
1
1
1
1
1
1
1
1
1
1
1
1
1
1
1
1
1
1
1
1
1
1
1
1
1
1
1
1
1
1
1
1
1
1
1
1
1
1
1
1
1
1
1
1
1
1
1
1
1
1
1
1
1
1
1
1
1
1
1
1
1
1
1
1
1
1
1
1
1
1
1
1
1
1
1
1
1
1
1
1
1
1
1
1
1
1
1
1
1
1
1
1
1
1
1
1
1
1
1
1
1
1
1
1
1
1
1
1
1
1
1
1
1
1
1
1
1
1
1
1
1
1
1
1
1
1
1
1
1
1
1
1
1
1
1
1
1
1
1
1
1
1
1
1
1
1
1
1
1
1
1
1
1
1
1
1
1
1
1
1
1
1
1
1
1
1
1
1
1
1
1
1
1
1
1
1
1
1
1
1
1
1
1
1
1
1
1
1
1
1
1
1
1
1
1
1
1
1
1
1
1
1
1
1
1
1
1
1
1
1
1
1
1
1
1
1
1
1
1
1
1
1
1
1
1
1
1
1
1
1
1
1
1
1
1
1
1
1
1
1
1
1
1
1
1
1
1
1
1
1
1
1
1
1
1
1
1
1
1
1
1
1
1
1
1
1
1
1
1
1
1
1
1
1
1
1
1
1
1
1
1
1
1
1
1
1
1
1
1
1
1
1
1
1
1
1
1
1
1
1
1
1
1
1
1
1
1
1
1
1
1
1
1
1
1
1
1
1
1
1
1
1
1
1
1
1
1
1
1
1
1
1
1
1
1
1
1
1
1
1
1
1
1
1
1
1
1
1
1
1
1
1
1
1
1
1
1
1
1
1
1
1
1
1
1
1
1
1
1
1
1
1
1
1
1
1
1
1
1
1
1
1
1
1
1
1
1
1
1
1
1
1
1
1
1
1
1
1
1
1
1
1
1
1
1
1
1
1
1
1
1
1
1
1
1
1
1
1
1
1
1
1
1
1
1
1
1
1
1
1
1
1
1
1
1
VECTORS v double
-3.5062862 -9.3879839 0
-4.3832504 -4.9713911 0
5.977063 2.2584241 0
7.7211208 2.4439547 0
-3.4014059 -5.8919385 0
4.3739194 2.7576604 0
4.8256676 -17.55341 0
1.5563973 7.9080531 0
7.7607645 10.078963 0
-11.025869 -4.9981605 0
4.706269 -2.8950491 0
-3.3813359 7.8083883 0
11.935034 -10.796154 0
6.6367511 -3.6290498 0
-5.9503193 -3.1683745 0
8.8912164 2.7609884 0
-9.6661824 3.5096199 0
6.4496053 4.8243413 0
-4.7504659 -3.3328358 0
4.5741405 -0.58446135 0
-5.2728953 7.2263468 0
0.95181415 1.9436583 0
-9.2588469 -3.6215774 0
0.88209503 22.533381 0
1.6973752 10.717459 0
8.8420074 -9.0870689 0
-7.5092522 2.0398368 0
-4.8657889 -9.0305307 0
-7.5213082 -6.6985477 0
-3.5905436 3.9697871 0
12.240158 -3.1593217 0
-3.5743613 -11.804691 0
-8.7754915 -2.135711 0
6.2764572 -1.000847 0
-7.2918155 1.3528873 0
-5.0413563 1.4789177 0
-3.6826807 -5.7997217 0
-6.3584909 3.5869457 0
-14.079277 -6.4368278 0
2.62259 1.6143335 0
-6.3867744 5.3566388 0
4.7650504 -9.4006488 0
1.2333489 9.9825844 0
8.2335937 -2.2078341 0
14.07895 -7.2721806 0
0.73400961 8.9471738 0
0.64156933 -6.6526193 0
-7.8779608 8.8014665 0
1.4691905 13.664196 0
1.1703909 0.90727958 0
-3.8554773 -4.8893242 0
-2.7574208 -9.3355563 0
3.4460795 -4.5564151 0
-1.6713295 -9.576611 0
-7.3399378 -9.1588487 0
5.5430492 -3.5184523 0
-3.4221006 -11.92941 0
-0.44311767 0.95644384 0
-3.1734737 -1.4273249 0
2.815937 -2.0042328 0
3.4130401 4.5597008 0
-4.0721905 -14.381915 0
-0.020589838 -6.3411996 0
9.0134941 -12.930846 0
-4.1793928 -10.088971 0
7.8689499 -8.5442247 0
-11.532824 -1.761649 0
6.266819 -3.9514159 0
-1.711362 -4.5938739 0
-9.667768 8.3375152 0
-5.0272983 -10.542821 0
4.7713267 8.5948621 0
0.86292332 4.9226861 0
5.4397955 9.0645243 0
-3.5872647 -2.598985 0
3.946654 -13.879276 0
6.3281663 -12.383632 0
6.2569894 3.910616 0
3.8811351 -6.6132773 0
-11.264186 -0.093407626 0
2.4922861 -10.862733 0
9.1751441 -5.9635925 0
-3.5991873 3.038626 0
-6.4962514 0.71258131 0
17.324046 -5.6978272 0
-3.04145 0.890861 0
6.3073334 -8.8926681 0
-3.9090204 2.950785 0
6.0487309 15.762061 0
5.865852 -0.56656937 0
0.90638588 -4.8958419 0
-5.5535107 0.52589855 0
5.5152028 -13.420797 0
1.3592992 -7.9201524 0
3.0705556 -11.462968 0
-5.4820456 -3.323461 0
1.5916163 -6.5594575 0
-13.541947 1.4056875 0
-2.2304202 -2.6795318 0
0.47115582 14.494986 0
3.3726521 -12.746934 0
-8.4293191 -5.7183856 0
6.8282541 1.7208442 0
2.4408903 7.4710106 0
-7.2160683 -17.152704 0
-1.4632744 10.300393 0
-6.3933573 -8.3691548 0
-6.9179869 -8.2110584 0
-7.0573172 -8.0079936 0
-7.4719464 -7.332974 0
-7.8874971 -6.6313438 0
-4.5646555 -10.601303 0
9.3629298 -7.2331909 0
-3.8708464 -11.015822 0
-5.1468904 -10.138736 0
-11.461161 5.4166552 0
2.9124605 -8.8476145 0
2.7869079 9.4936766 0
-9.5563854 -7.0110045 0
7.2760602 -5.3297759 0
-11.468461 6.6409679 0
-12.172087 -9.8397636 0
9.0440738 -5.3804784 0
5.5106066 -1.1468455 0
1.5242218 3.1386281 0
-8.9515723 -9.7115033 0
-11.106045 -9.3640876 0
-1.987071 1.6639816 0
-5.2247764 15.020451 0
2.3067566 -2.7216716 0
1.7594929 -2.4478041 0
1.8178212 -2.6191698 0
-6.6182852 -3.1427573 0
-7.104566 -3.1335767 0
2.0749196 0.46598611 0
1.7115593 0.053563155 0
10.625345 -3.4910467 0
4.9759429 2.5417705 0
5.9086526 -1.7229359 0
-8.901031 7.4763415 0
-8.0885304 8.7997651 0
1.5698728 -7.3261656 0
1.8884447 -5.375681 0
-2.1883725 0.066714256 0
2.6984897 0.19217538 0
-9.2393949 7.9103708 0
-15.825574 -2.5285278 0
-7.5949044 -0.042825505 0
2.7855753 9.3093357 0
-10.050709 1.2865866 0
7.4759579 4.7733592 0
-7.1186369 -15.021108 0
6.3029625 -5.2928786 0
3.0877847 -8.8995446 0
-3.7224588 8.6105094 0
-12.795846 1.2849153 0
-1.0886297 1.8132189 0
4.3786621 10.903307 0
-8.8871997 11.032984 0
-7.4976597 -3.8498781 0
-4.9595818 -0.47911699 0
1.3562618 5.7316739 0
-6.5676956 6.3855839 0
7.1973583 -2.016391 0
0.58596826 -14.670213 0
-10.531026 -6.3637424 0
-8.4189771 -7.6466119 0
-3.3281841 -2.3079793 0
3.4997099 4.1536389 0
10.644855 -0.73938588 0
-7.1971515 -7.0959038 0
7.2678106 -1.4954059 0
12.131754 1.6514643 0
8.7890656 -4.2804588 0
-9.7611475 7.5552593 0
7.9160149 -6.5257759 0
-10.114588 -1.7869446 0
0.68042712 -0.79364566 0
4.438179 4.0686155 0
5.2183674 9.0596732 0
-5.5193668 -16.390734 0
-10.066081 -0.45778751 0
-9.8664605 -0.71539734 0
12.080372 -5.6635558 0
14.583059 -10.498265 0
-10.072052 0.81451722 0
6.5396721 -4.1194476 0
-10.039727 0.93119723 0
-9.9656284 0.69076037 0
6.6608205 -6.0235206 0
-8.5830381 6.2755234 0
4.5294377 2.4972831 0
-0.0012175397 6.8336903 0
-4.1182465 0.2846315 0
-5.2273876 0.42469573 0
-9.7089866 0.62706672 0
-7.3367778 4.686309 0
2.8197987 1.5607928 0
-5.8081182 0.47615491 0
6.2747739 8.8219299 0
-3.8405984 -7.2030778 0
-11.289269 3.677606 0
-2.8574627 -0.45265243 0
-7.1167752 6.0487131 0
4.2452787 -1.7425604 0
-4.8590929 -9.4051872 0
-2.7284266 6.2047017 0
-1.880013 13.899816 0
-1.8822482 13.9485 0
0.087259488 15.299644 0
-2.6698775 13.669004 0
-3.0084571 13.512874 0
-4.9586403 12.438707 0
-4.2410648 12.85334 0
-6.3300172 4.159664 0
-2.9236875 13.989858 0
-7.5522768 -7.2279203 0
-8.3021275 -7.8241043 0
-7.4434074 -7.3444543 0
7.3799429 -16.15266 0
8.875735 10.478876 0
-1.4683353 13.191842 0
9.98665 0.39756296 0
-2.0191888 2.4386899 0
-5.8826686 -2.7090942 0
-7.0084566 -3.4939466 0
-12.104448 -1.554877 0
-7.4399294 -3.2469909 0
0.7701174 2.1188529 0
-18.721404 2.8373949 0
-10.645979 -7.6174217 0
-10.854031 -7.0589109 0
-10.779083 -7.2692298 0
-10.777812 -7.2744594 0
-10.379967 -8.1843424 0
-10.684065 -1.0618638 0
-10.829731 -1.474419 0
-10.090015 0.20543222 0
-10.280401 0.2441734 0
-10.290875 -1.6267308 0
3.2424077 2.9804365 0
3.9845792 1.9428497 0
3.8136197 2.061118 0
-3.5207417 -3.6568178 0
7.5307871 1.8897435 0
-8.8695564 1.631913 0
-6.377021 -6.6182566 0
-7.2182355 5.0265666 0
-10.005497 5.3121514 0
-10.024826 -0.010868239 0
-10.521327 -6.8303845 0
-10.10621 0.041621109 0
-10.027113 0.13086061 0
-9.597821 -1.7493662 0
5.2438917 -5.008113 0
2.4106327 -8.8978134 0
7.0457776 -3.2312695 0
3.5586971 -0.79271824 0
3.8291726 -1.2859156 0
3.7324601 -1.0952808 0
3.7284898 -1.0905617 0
3.2198015 -0.27774246 0
4.3199408 -6.6230477 0
4.4266085 -6.2725774 0
-0.96732208 1.7629186 0
-3.2982814 -10.074245 0
-5.7828046 2.2481735 0
-11.333461 -8.3867468 0
-12.072886 -7.2551629 0
-12.026008 -7.4475926 0
-4.0008851 9.8529273 0
-9.8125798 -1.7962234 0
-7.1931881 -3.675241 0
-3.6464815 6.5120722 0
-10.019194 9.1876645 0
0.82857334 -12.767729 0
-9.9882368 0.0086884492 0
-9.9752693 0.064524948 0
4.0722946 7.5740823 0
-9.6843445 8.3671458 0
6.4726807 3.5275151 0
-7.0330853 4.387682 0
-6.9376612 4.4524151 0
2.4292763 4.5437572 0
3.8942846 4.2760869 0
-6.9618868 4.4031199 0
-6.8639293 4.4953842 0
-7.8273602 3.5721355 0
-0.36243581 -10.992315 0
1.6765106 6.8949046 0
9.4068246 -2.7764305 0
-5.7170867 5.5401066 0
-5.5049747 5.6243446 0
-5.7047684 5.5468042 0
-10.285863 -7.1097909 0
-11.119293 0.79763434 0
-3.1909836 9.3281896 0
-9.9953669 -0.0029186217 0
-2.3872202 11.701227 0
3.3784879 9.8875885 0
-10.001713 0.0071743089 0
-0.40581406 3.2364153 0
-10.001447 -0.00066488119 0
-9.9842215 0.088556937 0
7.5298175 5.3215327 0
7.4761905 5.6469668 0
7.4762687 5.6467798 0
7.4762684 5.6467826 0
7.4762698 5.6467796 0
7.4762695 5.646781 0
7.4762697 5.6467795 0
7.4762729 5.6467615 0
7.4762019 5.6470967 0
7.4766845 5.6450123 0
7.4763524 5.6481295 0
11.307608 -3.1422465 0
-4.2330798 9.4169862 0
-4.2301319 9.4188886 0
-4.2300569 9.4188502 0
-4.2300537 9.4191063 0
-4.2287643 9.4194541 0
-4.2278909 9.4204261 0
2.1640542 -8.2431023 0
-4.3846007 9.5635809 0
-10.009949 -0.006655768 0
-10.000057 0.0075062802 0
-10.098367 0.079412475 0
-10.000482 -0.00098006586 0
-10.004661 0.0097189764 0
-9.9196358 -0.1578281 0
-10.061865 0.19392137 0
-10.061764 0.19749684 0
-10.061756 0.19753063 0
-10.061748 0.19753018 0
-10.061749 0.19752984 0
-10.06171 0.19752738 0
-10.061924 0.19753556 0
-10.061922 0.19754764 0
-10.061355 0.19729357 0
-10.061593 0.19770792 0
-10.10408 0.20725114 0
-1.7992192 1.4251845 0
1.9087671 -7.2778336 0
1.9086637 -7.277025 0
1.9086528 -7.2770316 0
1.9070465 -7.2775217 0
1.9070843 -7.2775165 0
1.9065362 -7.2774116 0
14.035791 -4.7538914 0
-9.8834366 -0.16798891 0
-10.000004 0.0074604863 0
-10.000036 1.3199796e-05 0
-10.000016 -7.4593811e-06 0
-10.00005 4.9211727e-05 0
-10.004439 0.01147125 0
-9.9937197 -0.086774583 0
-9.9873861 -0.14198794 0
-9.9873843 -0.14197643 0
-9.9873843 -0.14197684 0
-9.9873842 -0.14197642 0
-9.9873843 -0.14197645 0
-9.9873848 -0.14197602 0
-9.9873839 -0.14197645 0
-9.9873842 -0.14200796 0
-9.9873979 -0.14170788 0
-9.982467 -0.10269223 0
-10.094711 -0.078693867 0
-10.021967 -0.0047186378 0
-10.021969 -0.0046936825 0
-10.021969 -0.0046941137 0
-10.021964 -0.0046722771 0
-10.021965 -0.0046695992 0
-10.025769 0.0011112446 0
-10.01771 -0.0229959 0
-10.000965 -0.0078368245 0
-9.9999985 0.0074561101 0
-9.9999986 6.6650016e-06 0
-9.9999985 -3.9598347e-07 0
-10.000001 3.2336287e-06 0
-10.000087 5.4001332e-05 0
-10.000263 -2.991998e-05 0
-10.000282 -3.1852721e-05 0
-10.000282 -3.2446077e-05 0
-10.000282 -3.2445927e-05 0
-10.000282 -3.2430205e-05 0
-10.000282 -3.2434278e-05 0
-10.000282 -3.2434326e-05 0
-10.000282 -3.2438248e-05 0
-10.000282 -3.2400485e-05 0
-10.000284 -2.8664253e-05 0
-10.000539 9.5152572e-05 0
-10.000237 -9.8534128e-05 0
-10.000096 -4.3853476e-06 0
-10.000093 -3.9844028e-07 0
-10.000093 -4.0762912e-07 0
-10.000093 -3.9783271e-07 0
-10.000094 4.6955367e-07 0
-10.000105 2.9023135e-06 0
-10.000064 -3.0187651e-05 0
-10.000008 -0.0074616962 0
-9.9999977 0.0074561101 0
-9.9999977 6.6629915e-06 0
-9.9999977 -3.9575266e-07 0
-9.9999977 -7.733892e-11 0
-9.9999988 3.7293886e-07 0
-10 5.8351806e-08 0
-10 8.8300218e-08 0
-10 6.2617346e-08 0
-10 6.259821e-08 0
-10 6.2578768e-08 0
-10 6.2572599e-08 0
-10 6.2600896e-08 0
-10 6.2591852e-08 0
-9.9999999 6.2640777e-08 0
-9.9999999 1.332155e-07 0
-10.000001 2.0226971e-07 0
-9.9999999 -5.2970163e-07 0
-9.9999982 -5.2462646e-09 0
-9.9999982 -5.3082225e-09 0
-9.9999982 -5.3735488e-09 0
-9.9999982 -5.3630354e-09 0
-9.9999982 -5.2754103e-09 0
-9.9999983 4.0441095e-07 0
-9.999998 -6.7379312e-06 0
-9.9999976 -0.0074561097 0
-9.9999977 0.00745611 0
-9.9999976 6.6646574e-06 0
-9.9999971 9.1636332e-08 0
-9.999997 4.8724109e-07 0
-9.999997 4.8731072e-07 0
-9.999997 4.872898e-07 0
-9.999997 4.8726958e-07 0
-9.999997 4.8726959e-07 0
-9.999997 4.8728557e-07 0
-9.999997 4.8728555e-07 0
-9.999997 4.8728496e-07 0
-9.9999969 4.8730481e-07 0
-9.9999969 4.8727894e-07 0
-9.9999968 4.8732898e-07 0
-9.9999968 4.8739271e-07 0
-9.9999963 4.8406364e-07 0
-9.9999963 9.770186e-07 0
-9.9999963 9.7458381e-07 0
-9.9999963 9.7457424e-07 0
-9.9999962 9.7448384e-07 0
-9.9999961 9.7466045e-07 0
-9.9999961 9.747412e-07 0
-9.9999961 1.3703016e-06 0
-9.9999963 -6.1751474e-06 0
-9.9999963 -0.0074556205 0
-9.9999812 0.0074561063 0
-9.9999956 7.6535972e-06 0
-9.9999956 5.7929547e-07 0
-9.9999956 9.7497026e-07 0
-9.9999956 9.7539501e-07 0
-9.9999955 9.7417395e-07 0
-9.9999955 9.7427148e-07 0
-9.9999954 9.7424083e-07 0
-9.9999954 9.7424214e-07 0
-9.9999954 9.7426097e-07 0
-9.9999954 9.742715e-07 0
-9.999995 1.4608324e-06 0
-9.999995 1.4619105e-06 0
-9.9999949 1.4620168e-06 0
-9.9999949 1.462131e-06 0
-9.9999949 1.4541147e-06 0
-9.9999943 1.9558402e-06 0
-9.9999943 1.9478969e-06 0
-9.9999943 1.9479121e-06 0
-9.9999943 1.9464706e-06 0
-9.9999937 2.4362402e-06 0
-9.9999937 2.4348799e-06 0
-9.9999937 2.8271013e-06 0
-9.9999932 -3.7382878e-06 0
-9.999993 -0.0074531787 0
-9.9999491 0.0074560931 0
-9.999993 9.6173757e-06 0
-9.999993 2.5255889e-06 0
-9.999993 2.9212303e-06 0
-9.9999931 2.9298658e-06 0
-9.9999936 1.9400678e-06 0
-9.999993 2.4356861e-06 0
-9.9999924 2.9228476e-06 0
-9.9999923 2.9227658e-06 0
-9.9999923 2.9227931e-06 0
-9.9999923 2.9227759e-06 0
-9.9999924 2.9114124e-06 0
-9.9999919 3.4196555e-06 0
-9.9999918 3.4126081e-06 0
-9.9999918 3.4125415e-06 0
-9.9999918 3.4126682e-06 0
-9.9999918 3.4138857e-06 0
-9.9999917 3.4133402e-06 0
-9.9999917 3.4132276e-06 0
-9.9999911 3.8992945e-06 0
-9.9999905 4.3886443e-06 0
-9.9999904 4.3874368e-06 0
-9.9999903 4.7827125e-06 0
-9.9999903 -2.2745994e-06 0
-9.9999902 -0.0074516996 0
-9.9999253 0.0074560884 0
-9.9999901 1.1117407e-05 0
-9.9999901 3.9924138e-06 0
-9.9999901 4.3881479e-06 0
-9.99999 4.3886423e-06 0
-9.99999 4.3874612e-06 0
-9.9999894 4.3878272e-06 0
-9.9999894 4.8747347e-06 0
-9.9999892 4.8750656e-06 0
-9.9999892 4.8751098e-06 0
-9.9999892 4.8749513e-06 0
-9.9999892 4.8281541e-06 0
-9.9999814 1.0272503e-05 0
-9.9999814 1.0225088e-05 0
-9.9999814 1.0224792e-05 0
-9.9999804 1.0711725e-05 0
-9.9999803 1.1199786e-05 0
-9.9999803 1.1199241e-05 0
-9.9999803 1.1197012e-05 0
-9.9999803 1.1201836e-05 0
-9.9999802 1.120228e-05 0
-9.9999802 1.1202222e-05 0
-9.9999801 1.1592036e-05 0
-9.9999795 5.0316338e-06 0
-9.9999794 -0.0074443852 0
-9.9998041 0.0074560311 0
-9.9999793 1.8512078e-05 0
-9.9999787 1.1291356e-05 0
-9.9999787 1.2174411e-05 0
-9.9999776 1.3151243e-05 0
-9.9999776 1.3149745e-05 0
-9.9999776 1.3149797e-05 0
-9.9999777 1.3147274e-05 0
-9.9999771 1.3639004e-05 0
-9.9999766 1.3636295e-05 0
-9.9999766 1.4123286e-05 0
-9.9999765 1.412468e-05 0
-9.9999765 1.4131319e-05 0
-9.9999761 1.4127629e-05 0
-9.9999761 1.4612406e-05 0
-9.9999755 1.5104756e-05 0
-9.9999754 1.5102238e-05 0
-9.9999754 1.510222e-05 0
-9.9999753 1.5069171e-05 0
-9.9999714 1.9026475e-05 0
-9.9999714 1.8993023e-05 0
-9.9999708 1.8991114e-05 0
-9.9999708 1.9877427e-05 0
-9.9999708 1.2816392e-05 0
-9.9999701 -0.007436085 0
-9.9996703 0.0074559925 0
-9.9999695 2.6843885e-05 0
-9.9999692 1.9567594e-05 0
-9.9999692 2.0455193e-05 0
-9.9999686 2.0933097e-05 0
-9.9999676 2.1919868e-05 0
-9.9999675 2.1913624e-05 0
-9.9999675 2.1914071e-05 0
-9.9999675 2.1914178e-05 0
-9.9999675 2.1915814e-05 0
-9.9999669 2.1913746e-05 0
-9.9999669 2.2405174e-05 0
-9.9999669 2.2402661e-05 0
-9.9999669 2.2400302e-05 0
-9.9999659 2.3372842e-05 0
-9.9999653 2.3869518e-05 0
-9.9999652 2.3863081e-05 0
-9.999964 2.4349552e-05 0
-9.999964 2.4837831e-05 0
-9.9999641 2.4840598e-05 0
-9.9999641 2.483812e-05 0
-9.9999641 2.4838496e-05 0
-9.999964 2.5236955e-05 0
-9.999964 1.8178629e-05 0
-9.9999639 -0.0074312006 0
-9.9996025 0.0074571712 0
-9.9999779 2.5999256e-05 0
-9.9999769 1.9582868e-05 0
-9.9999763 2.0465199e-05 0
-9.9999759 2.0459728e-05 0
-9.9999754 2.0940872e-05 0
-9.9999748 2.19258e-05 0
-9.9999659 2.2414066e-05 0
-9.9999652 2.2887516e-05 0
-9.999964 2.387563e-05 0
-9.9999634 2.4840964e-05 0
-9.9999635 2.4840177e-05 0
-9.999963 2.4838783e-05 0
-9.9999629 2.5320844e-05 0
-9.9999623 2.582087e-05 0
-9.9999619 2.5810547e-05 0
-9.9999613 2.6302983e-05 0
-9.9999613 2.6788508e-05 0
-9.9999613 2.6787691e-05 0
-9.999953 2.6784424e-05 0
-9.9999524 2.7762127e-05 0
-9.9999439 2.8245284e-05 0
-9.999944 2.863869e-05 0
-9.9999442 2.1448394e-05 0
-9.9999475 -0.0074289802 0
-10.006578 0.0070433983 0
-10.007394 3.8681222e-05 0
-10.007393 2.7939103e-05 0
-10.007392 2.8823487e-05 0
-10.007391 2.9801117e-05 0
-10.007391 2.9797219e-05 0
-10.007391 2.9802669e-05 0
-10.007392 2.9305212e-05 0
-10.007408 2.8820789e-05 0
-10.007408 2.8819829e-05 0
-10.007407 2.8322516e-05 0
-10.007399 2.9310208e-05 0
-10.007399 2.9792249e-05 0
-10.007398 3.0287215e-05 0
-10.007398 3.0284249e-05 0
-10.007398 3.0774876e-05 0
-10.007397 3.0772114e-05 0
-10.007397 3.1265506e-05 0
-10.007397 3.126451e-05 0
-10.007397 3.1259133e-05 0
-10.007396 3.2251449e-05 0
-10.007396 3.2237727e-05 0
-10.007387 3.3108483e-05 0
-10.007388 2.3061047e-05 0
-10.006976 -0.0070114058 0
9.3664798 -3.8410098 0
-9.5708475 -1.0584358 0
1.5090256 14.908657 0
6.9826185 -11.535437 0
-8.9977309 -5.1790702 0
-2.6713374 6.4604173 0
2.5049093 -1.6025499 0
-6.0868341 -3.822612 0
0.50019768 4.5495298 0
-0.38576919 11.504778 0
9.6070086 1.8168289 0
0.75188768 4.0460542 0
-0.94445696 -4.0717274 0
4.7048424 3.2127561 0
0.19671867 -17.457736 0
5.9373378 7.887362 0
-3.9578943 9.115451 0
2.3551221 1.4969612 0
7.5591982 2.7809252 0
6.8578454 -8.4185731 0
-10.099487 6.121329 0
5.3906272 2.6320906 0
8.1163714 4.371929 0
-2.6283344 22.955091 0
-9.4761986 5.5617266 0
9.6265473 0.29485588 0
-0.90213526 -0.49848023 0
-0.92995652 -0.83070083 0
-6.8498691 -9.3061405 0
8.7575931 6.1477389 0
4.3308263 -2.3714513 0
5.5999914 1.4253703 0
3.9342453 -2.5195692 0
-0.7614856 5.0837634 0
10.275177 1.1048797 0
-6.2540666 5.0468098 0
-0.44337513 -8.2472425 0
0.18027209 2.9006659 0
-2.5330157 4.4386614 0
-8.697371 -0.43318598 0
3.2711098 3.6130059 0
1.8290665 0.93260198 0
-8.5533878 -5.2520844 0
2.9859687 -7.0734811 0
8.4617608 4.6522284 0
0.47781068 -8.8991264 0
-3.0645546 1.4435393 0
4.5995028 -0.53029466 0
-0.56502121 -8.1904519 0
-0.12044916 9.3399022 0
8.2400941 -6.0226147 0
1.787369 1.5244889 0
-1.5741707 -7.4900448 0
3.0981688 -8.4548864 0
-3.8907169 11.612632 0
0.51701816 9.2298317 0
-14.964696 -0.23166107 0
12.592467 6.7619684 0
-19.233148 -4.7273747 0
3.6343247 -0.080577084 0
-12.52596 7.2614708 0
-9.0235555 1.5707139 0
10.717516 9.8952457 0
2.7461807 -2.3811578 0
6.9782301 8.1343338 0
15.418697 2.6644924 0
-9.572396 5.979976 0
8.549913 -13.421558 0
7.5185838 -8.367828 0
-4.8406283 2.8309513 0
-3.7400247 0.67005005 0
0.86750178 -0.54488995 0
5.7209904 3.7941309 0
14.497358 -5.3818021 0
2.1720298 -6.2641636 0
-6.54851 -6.7367917 0
-1.9782309 -10.565004 0
-3.7488796 -5.6176882 0
-11.229743 6.9952055 0
-11.120594 2.68961 0
6.3104849 1.2783554 0
-0.13020964 -4.0853088 0
-8.3163746 6.514677 0
-9.1147421 2.9598722 0
10.270079 -14.135624 0
-4.3999288 -14.27573 0