# vtk DataFile Version 4.0
hesp visualization file
ASCII
DATASET UNSTRUCTURED_GRID
POINTS 1250 double
29.047973 2.0768483 4
29.918068 1.2728784 4
32.08038 3.7391463 4
29.842615 6.1647078 4
31.048325 4.5677241 4
31.650322 6.0435159 4
31.939779 7.1953453 4
31.817795 8.3410062 4
30.938863 9.6054303 4
31.2008 10.692406 4
32.535919 11.56853 4
29.56905 14.224968 4
30.086633 15.447898 4
31.065068 14.91594 4
30.809677 18.274448 4
31.703074 15.88151 4
29.679266 19.248219 4
29.806932 20.93882 4
30.873461 22.248913 4
29.757403 23.306524 4
30.582873 22.334336 4
30.203802 25.217515 4
31.341015 24.743308 4
30.464001 26.979482 4
29.194071 27.859644 4
34.135536 -2.3152936 4
29.906757 3.579216 4
30.150791 0.83229641 4
30.53554 4.7369519 4
29.737352 4.0475708 4
28.79494 4.8410023 4
28.827287 5.9271914 4
28.844678 7.5691658 4
28.781456 8.2146379 4
29.286541 9.7833735 4
30.580036 12.446313 4
30.681059 11.797446 4
29.269001 14.029921 4
28.030251 14.974258 4
30.942425 15.731855 4
30.033028 19.867637 4
29.407754 18.024159 4
29.161719 19.077186 4
30.37355 21.454418 4
31.675552 22.02942 4
30.738723 24.562631 4
31.851475 24.225326 4
29.522221 26.162129 4
29.010024 28.723655 4
32.192722 29.025764 4
28.110228 2.397521 4
30.641026 -0.95932924 4
31.3116 3.1378712 4
32.691451 4.1467516 4
30.87098 3.2168382 4
32.25173 4.9324861 4
32.069913 5.8379056 4
31.303228 7.8711992 4
31.208153 8.9790029 4
31.36005 10.309734 4
31.510323 10.688901 4
31.353911 12.234501 4
30.906885 12.137799 4
31.51758 13.137968 4
31.559004 15.244133 4
31.566013 15.580514 4
32.478845 17.256978 4
32.167376 18.040245 4
31.731989 18.095937 4
32.084454 21.241146 4
30.939971 21.170313 4
31.304384 22.318739 4
30.816665 23.488869 4
30.929623 25.986301 4
32.531038 27.267392 4
34.358755 -3.9673747 4
31.077377 1.6491526 4
30.587208 5.6621102 4
30.860165 4.3194317 4
30.258566 5.8304879 4
29.98427 7.4910475 4
29.960591 8.1653131 4
30.264089 9.4281988 4
29.760653 10.833533 4
31.332894 11.482608 4
30.377159 13.874059 4
31.263941 14.013862 4
30.601045 15.577637 4
30.893096 17.871766 4
29.807377 15.68951 4
31.144077 16.207189 4
31.346796 18.14886 4
31.628307 18.831838 4
31.445694 20.00058 4
31.918721 20.584773 4
32.218755 21.592754 4
31.72534 22.796596 4
32.031297 23.906243 4
30.036468 26.863735 4
32.170382 32.302186 4
32.402211 0.12105586 4
33.001152 0.48017547 4
34.305044 2.5785658 4
33.681066 4.7344194 4
32.105151 5.3785064 4
34.296248 6.3016253 4
34.29712 7.430813 4
34.29585 8.5462767 4
34.296426 9.6718316 4
34.29613 10.80301 4
34.296977 11.935366 4
34.269298 12.98584 4
34.273563 14.113502 4
34.255658 15.217038 4
34.256524 16.339819 4
33.237006 17.045683 4
32.827551 18.24738 4
32.721064 19.019646 4
32.731621 20.122894 4
34.343136 21.93679 4
34.344416 23.057481 4
34.09561 23.179423 4
34.344274 24.250479 4
33.352568 26.706338 4
31.532364 26.813931 4
30.709879 0.40196075 4
31.704087 3.0086038 4
34.598242 5.822654 4
35.20101 5.9680028 4
35.208593 7.104313 4
35.20925 8.2275206 4
35.208926 9.349617 4
35.209315 10.472518 4
35.209158 11.594803 4
35.20916 12.717268 4
35.208516 13.838998 4
35.213692 14.967289 4
35.213159 16.089154 4
35.171613 17.133842 4
35.174282 18.260429 4
35.199376 19.443825 4
35.199399 20.566323 4
35.200729 21.690983 4
35.200733 22.813457 4
35.181221 23.899602 4
35.180569 25.022551 4
34.791608 24.926997 4
35.218792 27.306587 4
33.434596 28.202554 4
30.668019 28.452914 4
32.685354 3.6313355 4
32.214865 -0.34668731 4
36.102256 5.1654759 4
31.781094 4.3488979 4
31.780899 5.4647659 4
31.777381 6.5931583 4
31.966852 7.8798462 4
31.775441 8.8367339 4
31.777887 9.9610266 4
31.778008 11.083665 4
32.200907 12.284625 4
31.776009 13.33339 4
31.776407 14.455474 4
32.129504 15.550527 4
31.775368 16.701437 4
32.562465 18.56254 4
32.10481 19.764304 4
32.216861 20.99347 4
32.213541 22.117432 4
31.814171 22.265045 4
32.238631 23.497851 4
31.838189 24.548189 4
32.413321 25.16199 4
32.922527 24.830049 4
33.179343 28.089429 4
37.235616 -0.80595197 4
34.052198 3.8067469 4
32.997578 3.2972585 4
35.032289 5.3684314 4
32.922636 5.8696024 4
32.923652 6.9825119 4
32.922475 8.116014 4
32.922983 9.2335964 4
32.92448 10.343393 4
32.926453 11.450104 4
32.918232 12.687941 4
32.91839 13.800541 4
32.918579 14.957794 4
32.918577 16.079238 4
33.879624 16.900478 4
33.90413 18.07883 4
33.711886 19.563768 4
33.692255 20.701163 4
32.919847 21.727031 4
32.920293 22.851763 4
32.923379 23.973704 4
33.18239 25.413046 4
34.371025 26.232074 4
33.290336 27.193671 4
36.609777 30.245903 4
33.827753 1.2679819 4
36.995681 1.8467715 4
35.046587 1.7486984 4
34.488847 3.0688647 4
34.488759 4.1889667 4
34.538937 5.2645001 4
34.495254 6.4309812 4
34.496188 7.5540558 4
34.495146 8.6758954 4
34.495548 9.7986311 4
34.496685 10.921636 4
34.498937 12.045202 4
34.492676 13.163964 4
34.492319 14.286922 4
34.492304 15.409278 4
34.50561 16.516165 4
34.505719 17.639173 4
34.52328 18.737701 4
34.523276 19.86017 4
34.522983 20.983004 4
34.523806 22.106308 4
34.525903 23.225738 4
34.743618 24.448022 4
35.744328 26.389422 4
35.937072 27.148051 4
34.224093 1.1248243 4
34.031164 2.1077252 4
36.430488 4.2052936 4
37.391779 5.5529757 4
37.393805 6.6703329 4
37.393805 7.7927963 4
37.393805 8.9152583 4
37.393805 10.03772 4
37.393805 11.160182 4
37.393805 12.282644 4
37.393805 13.405107 4
37.393807 14.527565 4
37.393797 15.650052 4
37.393807 16.772487 4
37.393813 17.894932 4
37.37563 19.056248 4
37.375629 20.178702 4
37.375629 21.301164 4
37.37563 22.423626 4
37.375632 23.546086 4
37.375632 24.668548 4
37.375633 25.791009 4
37.375586 26.913415 4
36.390623 27.81232 4
34.223481 28.057143 4
35.350255 1.1369231 4
35.345234 2.2427288 4
35.342751 3.3755198 4
35.372967 4.4364377 4
35.864305 5.5105059 4
35.863242 6.6257957 4
35.86202 7.7476813 4
35.862627 8.8704276 4
35.861897 9.9925483 4
35.86219 11.115148 4
35.862187 12.237608 4
35.863398 13.360636 4
35.854089 14.478635 4
35.854989 15.601546 4
35.922428 16.76572 4
35.919583 17.883315 4
35.912047 18.976592 4
35.912033 20.099025 4
35.911174 21.219974 4
35.911163 22.342431 4
35.921569 23.488805 4
35.921351 24.611164 4
35.423749 25.702044 4
35.884916 26.806254 4
35.348632 28.055187 4
37.340862 0.098898889 4
36.469635 2.2445062 4
36.469492 3.3674694 4
37.077235 4.9883639 4
36.471415 5.6021441 4
36.471487 6.724556 4
36.471487 7.8470183 4
36.471487 8.9694803 4
36.471487 10.091942 4
36.471487 11.214404 4
36.471487 12.336866 4
36.471487 13.459329 4
36.471488 14.581791 4
36.471488 15.704253 4
36.471476 16.826714 4
36.471517 17.94907 4
36.467999 19.080909 4
36.468 20.203368 4
36.468 21.32583 4
36.468 22.448292 4
36.467999 23.57075 4
36.467999 24.693212 4
36.468026 25.815677 4
36.46806 26.93798 4
37.103972 28.528612 4
37.591918 1.1245956 4
37.591986 2.24492 4
37.592005 3.3673871 4
37.591961 4.4898702 4
37.622831 5.6217155 4
37.625152 6.7456553 4
37.625153 7.8681177 4
37.625153 8.9905798 4
37.625153 10.113042 4
37.625153 11.235504 4
37.625153 12.357966 4
37.625153 13.480428 4
37.625155 14.602891 4
37.625145 15.725346 4
37.625156 16.847816 4
37.625155 17.970277 4
37.603092 19.083488 4
37.603091 20.20595 4
37.603091 21.328412 4
37.603091 22.450874 4
37.603093 23.573337 4
37.603093 24.695799 4
37.603094 25.818261 4
37.603039 26.940699 4
37.591961 28.059401 4
38.714468 1.1246281 4
38.714469 2.2449344 4
38.714469 3.3673861 4
38.714469 4.4898483 4
38.714468 5.6123102 4
38.714468 6.7347723 4
38.714468 7.8572343 4
38.714468 8.9796964 4
38.714468 10.102158 4
38.714468 11.22462 4
38.714468 12.347083 4
38.714468 13.469545 4
38.714468 14.592007 4
38.714468 15.714469 4
38.714468 16.836931 4
38.714468 17.959393 4
38.714468 19.081855 4
38.714468 20.204317 4
38.714468 21.326779 4
38.714468 22.449241 4
38.714468 23.571703 4
38.714468 24.694165 4
38.714468 25.816627 4
38.714469 26.939079 4
38.714469 28.059385 4
39.836931 1.1246282 4
39.836931 2.2449345 4
39.836931 3.3673861 4
39.836931 4.4898482 4
39.836931 5.6123102 4
39.836931 6.7347723 4
39.836931 7.8572343 4
39.836931 8.9796964 4
39.836931 10.102158 4
39.836931 11.22462 4
39.836931 12.347083 4
39.836931 13.469545 4
39.836931 14.592007 4
39.836931 15.714469 4
39.836931 16.836931 4
39.836931 17.959393 4
39.836931 19.081855 4
39.836931 20.204317 4
39.836931 21.326779 4
39.836931 22.449241 4
39.836931 23.571703 4
39.836931 24.694165 4
39.836931 25.816627 4
39.836931 26.939079 4
39.836931 28.059385 4
40.959393 1.1246282 4
40.959393 2.2449345 4
40.959393 3.3673861 4
40.959393 4.4898482 4
40.959393 5.6123102 4
40.959393 6.7347723 4
40.959393 7.8572343 4
40.959393 8.9796964 4
40.959393 10.102158 4
40.959393 11.22462 4
40.959393 12.347083 4
40.959393 13.469545 4
40.959393 14.592007 4
40.959393 15.714469 4
40.959393 16.836931 4
40.959393 17.959393 4
40.959393 19.081855 4
40.959393 20.204317 4
40.959393 21.326779 4
40.959393 22.449241 4
40.959393 23.571703 4
40.959393 24.694165 4
40.959393 25.816627 4
40.959393 26.939079 4
40.959393 28.059385 4
42.081855 1.1246282 4
42.081855 2.2449345 4
42.081855 3.3673861 4
42.081855 4.4898482 4
42.081856 5.6123102 4
42.081856 6.7347723 4
42.081856 7.8572343 4
42.081856 8.9796964 4
42.081856 10.102158 4
42.081856 11.22462 4
42.081856 12.347083 4
42.081856 13.469545 4
42.081856 14.592007 4
42.081856 15.714469 4
42.081856 16.836931 4
42.081856 17.959393 4
42.081856 19.081855 4
42.081856 20.204317 4
42.081856 21.326779 4
42.081856 22.449241 4
42.081856 23.571703 4
42.081856 24.694165 4
42.081856 25.816627 4
42.081856 26.939079 4
42.081856 28.059385 4
43.204318 1.1246282 4
43.204318 2.2449345 4
43.204318 3.3673861 4
43.204318 4.4898482 4
43.204318 5.6123102 4
43.204318 6.7347723 4
43.204318 7.8572343 4
43.204318 8.9796964 4
43.204318 10.102158 4
43.204318 11.22462 4
43.204318 12.347083 4
43.204318 13.469545 4
43.204318 14.592007 4
43.204318 15.714469 4
43.204318 16.836931 4
43.204318 17.959393 4
43.204318 19.081855 4
43.204318 20.204317 4
43.204318 21.326779 4
43.204318 22.449241 4
43.204318 23.571703 4
43.204318 24.694165 4
43.204318 25.816627 4
43.204318 26.939079 4
43.204318 28.059385 4
44.326782 1.1246282 4
44.32678 2.2449347 4
44.32678 3.3673863 4
[...]
POINT_DATA 1250
SCALARS m double
LOOKUP_TABLE default
1
1
1
1
1
1
1
1
1
1
1
1
1
1
1
1
1
1
1
1
1
1
1
1
1
1
1
1
1
1
1
1
1
1
1
1
1
1
1
1
1
1
1
1
1
1
1
1
1
1
1
1
1
1
1
1
1
1
1
1
1
1
1
1
1
1
1
1
1
1
1
1
1
1
1
1
1
1
1
1
1
1
1
1
1
1
1
1
1
1
1
1
1
1
1
1
1
1
1
1
1
1
1
1
1
1
1
1
1
1
1
1
1
1
1
1
1
1
1
1
1
1
1
1
1
1
1
1
1
1
1
1
1
1
1
1
1
1
1
1
1
1
1
1
1
1
1
1
1
1
1
1
1
1
1
1
1
1
1
1
1
1
1
1
1
1
1
1
1
1
1
1
1
1
1
1
1
1
1
1
1
1
1
1
1
1
1
1
1
1
1
1
1
1
1
1
1
1
1
1
1
1
1
1
1
1
1
1
1
1
1
1
1
1
1
1
1
1
1
1
1
1
1
1
1
1
1
1
1
1
1
1
1
1
1
1
1
1
1
1
1
1
1
1
1
1
1
1
1
1
1
1
1
1
1
1
1
1
1
1
1
1
1
1
1
1
1
1
1
1
1
1
1
1
1
1
1
1
1
1
1
1
1
1
1
1
1
1
1
1
1
1
1
1
1
1
1
1
1
1
1
1
1
1
1
1
1
1
1
1
1
1
1
1
1
1
1
1
1
1
1
1
1
1
1
1
1
1
1
1
1
1
1
1
1
1
1
1
1
1
1
1
1
1
1
1
1
1
1
1
1
1
1
1
1
1
1
1
1
1
1
1
1
1
1
1
1
1
1
1
1
1
1
1
1
1
1
1
1
1
1
1
1
1
1
1
1
1
1
1
1
1
1
1
1
1
1
1
1
1
1
1
1
1
1
1
1
1
1
1
1
1
1
1
1
1
1
1
1
1
1
1
1
1
1
1
1
1
1
1
1
1
1
1
1
1
1
1
1
1
1
1
1
1
1
1
1
1
1
1
1
1
1
1
1
1
1
1
1
1
1
1
1
1
1
1
1
1
1
1
1
1
1
1
1
1
1
1
1
1
1
1
1
1
1
1
1
1
1
1
1
1
1
1
1
1
1
1
1
1
1
1
1
1
1
1
1
1
1
1
1
1
1
1
1
1
1
1
1
1
1
1
1
1
1
1
1
1
1
1
1
1
1
1
1
1
1
1
1
1
1
1
1
1
1
1
1
1
1
1
1
1
1
1
1
1
1
1
1
1
1
1
1
1
1
1
1
1
1
1
1
1
1
1
1
1
1
1
1
1
1
1
1
1
1
1
1
1
1
1
1
1
1
1
1
1
1
1
1
1
1
1
1
1
1
1
1
1
1
1
1
1
1
1
1
1
1
1
1
1
1
1
1
1
1
1
1
1
1
1
1
1
1
1
1
1
1
1
1
1
1
1
1
1
1
1
1
1
1
1
1
1
1
1
1
1
1
1
1
1
1
1
1
1
1
1
1
1
1
1
1
1
1
1
1
1
1
1
1
1
1
1
1
1
1
1
1
1
1
1
1
1
1
1
1
1
1
1
1
1
1
1
1
1
1
1
1
1
1
1
1
1
1
1
1
1
1
1
1
1
1
1
1
1
1
1
1
1
1
1
1
1
1
1
1
1
1
1
1
1
1
1
1
1
1
1
1
1
1
1
1
1
1
1
1
1
1
1
1
1
1
1
1
1
1
1
1
1
1
1
1
1
1
1
1
1
1
1
1
1
1
1
1
1
1
1
1
1
1
1
1
1
1
1
1
1
1
1
1
1
1
1
1
1
1
1
1
1
1
1
1
1
1
1
1
1
1
1
1
1
1
1
1
1
1
1
1
1
1
1
1
1
1
1
1
1
1
1
1
1
1
1
1
1
1
1
1
1
1
1
1
1
1
1
1
1
1
1
1
1
1
1
1
1
1
1
1
1
1
1
1
1
1
1
1
1
1
1
1
1
1
1
1
1
1
1
1
1
1
1
1
1
1
1
1
1
1
1
1
1
1
1
1
1
1
1
1
1
1
1
1
1
1
1
1
1
1
1
1
1
1
1
1
1
1
1
1
1
1
1
1
1
1
1
1
1
1
1
1
1
1
1
1
1
1
1
1
1
1
1
1
1
1
1
1
1
1
1
1
1
1
1
1
1
1
1
1
1
1
1
1
1
1
1
1
1
1
1
1
1
1
1
1
1
1
1
1
1
1
1
1
1
1
1
1
1
1
1
1
1
1
1
1
1
1
1
1
1
1
1
1
1
1
1
1
1
1
1
1
1
1
1
1
1
1
1
1
1
1
1
1
1
1
1
1
1
1
1
1
1
1
1
1
1
1
1
1
1
1
1
1
1
1
1
1
1
1
1
1
1
1
1
1
1
1
1
1
1
1
1
1
1
1
1
1
1
1
1
1
1
1
1
1
1
1
1
1
1
1
1
1
1
1
1
1
1
1
1
1
1
1
1
1
1
1
1
1
1
1
1
1
1
1
1
1
1
1
1
1
1
1
1
1
1
1
1
1
1
1
1
1
1
1
1
1
1
1
1
1
1
1
1
1
1
1
1
1
1
1
1
1
1
1
1
1
1
1
1
1
1
1
1
1
1
1
1
1
1
1
1
1
1
1
1
1
1
1
1
1
1
1
1
1
1
1
1
1
1
1
1
1
1
1
1
1
1
1
1
1
1
1
1
1
1
1
1
1
1
1
1
1
1
1
1
1
1
1
1
1
1
1
1
1
1
1
1
1
1
1
1
1
1
1
1
1
1
1
1
1
1
1
1
1
1
1
1
1
1
1
1
VECTORS v double
-3.5878777 -9.3432985 0
6.9560687 -6.0526289 0
7.7612054 5.4258033 0
-27.144659 -2.0041781 0
6.4614369 -3.7003901 0
4.6505158 -14.130776 0
4.9842846 -17.479943 0
6.506939 -13.193033 0
-4.6611989 -12.387726 0
-2.5769664 -10.605222 0
16.645137 -8.8672741 0
-9.3222718 5.1262477 0
-3.8665634 3.622332 0
6.9029948 -4.3126239 0
-7.652292 5.3629281 0
0.68710075 -12.808499 0
-9.5561537 3.6532973 0
-8.6788984 10.856297 0
2.705762 4.698117 0
-6.97487 10.321638 0
-13.226302 -4.9651033 0
-4.840683 6.6678704 0
6.3600302 -6.5602422 0
0.53729519 3.2081829 0
1.8300672 10.945255 0
8.8420076 -9.0870446 0
-7.5402219 1.8991083 0
-4.913129 -8.9946512 0
3.8292726 0.53334301 0
5.3743869 -5.3089756 0
-7.1585686 -9.0091839 0
-7.0081503 -9.1804259 0
-6.5441381 3.7547603 0
-7.1712404 -9.0623674 0
5.8803405 -1.1496793 0
1.0721255 4.3984906 0
-6.8567327 9.4184147 0
-8.5226531 5.3959953 0
-14.592971 3.5819287 0
-0.69709749 -14.713782 0
1.2266053 9.7610862 0
2.1839011 -8.1118406 0
-3.8082946 -8.8573795 0
-0.42778146 -2.1506645 0
-0.84576769 -7.9632996 0
0.32286808 8.9609786 0
8.8038374 -5.9902425 0
-7.7123165 8.9261755 0
1.4690679 13.666604 0
1.3121616 1.1652583 0
-14.841437 -1.0973184 0
-2.7536833 -9.3409632 0
-5.772038 1.3007511 0
5.8909825 6.0704744 0
-7.442576 -9.1718115 0
5.1875486 -3.4172252 0
12.544794 -2.8849915 0
-3.6143581 8.0185819 0
-1.7877042 10.511819 0
0.0022658497 11.701144 0
6.2295051 2.6130028 0
-10.335346 7.3066454 0
-7.3882382 -9.4823221 0
9.5451051 -12.477309 0
2.1155007 8.4824734 0
-10.081699 -1.3674331 0
-11.456796 -2.2263622 0
0.24213414 1.4502247 0
-12.508652 -11.138926 0
1.0082623 -0.31127229 0
-5.962364 -9.4749005 0
2.4823307 -9.0230375 0
-7.7980417 -8.8613959 0
-7.402686 -2.2347332 0
-3.6198481 -2.6015043 0
3.9466544 -13.879301 0
-5.0336072 -11.22176 0
0.48951602 -1.1201813 0
0.28767382 -8.9968505 0
-10.995658 0.22630151 0
-4.5691922 15.960855 0
-7.0328823 -2.9927543 0
-4.8042898 -3.7699735 0
-7.8392846 0.26791293 0
13.280604 -3.900904 0
-9.2846474 9.2806627 0
-2.4878094 -11.3381 0
-13.211338 -0.15238301 0
-0.87337294 11.679604 0
2.383363 -7.7261682 0
1.0981798 -4.5886417 0
4.7157147 -1.9326615 0
0.042739501 -15.375365 0
-2.6115331 -0.13012169 0
10.707809 -0.63381549 0
10.994885 -11.90984 0
-6.2987401 -13.236697 0
2.4834425 -11.93754 0
-3.0771385 0.75672245 0
0.47115582 14.494986 0
3.3633464 -12.7566 0
-8.2549429 -7.4624976 0
6.5667022 2.2138607 0
0.55592908 9.6545608 0
-13.372253 2.7912541 0
4.9557813 -0.37850101 0
4.0700244 -0.71503266 0
5.0318839 -0.32384881 0
4.6338584 -0.48710814 0
3.6416055 -0.78808996 0
1.9394307 -1.3655225 0
7.7838411 0.6316846 0
7.7272252 0.67232582 0
7.8281426 0.45302709 0
7.8293811 0.46754857 0
13.313537 -8.4444634 0
2.9049196 -8.8358024 0
-9.6657364 -6.4875741 0
-9.4802642 -6.7602442 0
6.6841154 -1.1971471 0
7.5966339 -1.7683157 0
3.5033907 -14.342555 0
-6.8881574 -8.5209134 0
1.2442061 5.2192304 0
-11.579124 -2.5028581 0
-8.8233496 -6.9573873 0
-9.8201316 -0.76486887 0
7.264209 8.9520704 0
-7.9739678 8.8454653 0
-7.7682679 9.120354 0
-7.7475212 9.1415032 0
-7.7577667 9.1311011 0
-7.7454504 9.143594 0
-7.7504093 9.138569 0
-7.7503456 9.1386221 0
-7.7707112 9.1178367 0
-7.6075644 9.2808007 0
-7.6243966 9.264512 0
-8.8795825 7.3411005 0
-8.807426 7.4581445 0
-8.1446978 8.6679067 0
-8.1440856 8.6685732 0
-8.1089594 8.7122181 0
-8.108958 8.7124517 0
-8.6279139 7.9953688 0
-8.714057 8.0114264 0
-4.5167492 -10.151805 0
-7.6329787 9.1949922 0
2.5056902 9.2155879 0
-9.9547692 1.2028511 0
-10.540817 8.638605 0
-7.1279629 -15.046226 0
9.2870187 9.0617204 0
-9.9497012 -0.57866895 0
-9.7989287 -0.65083266 0
-10.020383 -0.5949781 0
-1.4798157 6.9970414 0
-10.110092 -0.69835161 0
-10.00371 -0.54897811 0
-9.9998296 -0.5642165 0
9.1325019 3.1028719 0
-10.044239 -0.55059354 0
-9.9991588 -0.53943569 0
7.2951242 -1.9694245 0
-10.006918 -0.54999066 0
-4.667787 9.3388769 0
-7.6912105 5.6826136 0
-6.7387269 6.1756885 0
-7.1274997 6.4465216 0
-4.7430009 4.9117218 0
0.92188894 2.3366957 0
-8.3078427 1.5285123 0
-10.264096 -2.8264594 0
-3.9786583 -10.782011 0
-9.6409547 7.418551 0
7.9374566 -6.5504165 0
1.6238203 3.706981 0
-8.0869345 -5.2479233 0
4.674838 5.0097166 0
-9.9226705 -0.51988804 0
-9.9097188 -0.63816235 0
-9.9240959 -0.50174129 0
-9.9177706 -0.56206296 0
-9.8994445 -0.72035643 0
-9.8931209 -0.90799142 0
-9.9727652 0.53312008 0
-9.9716661 0.40870746 0
-9.9659086 0.85915216 0
-9.9661804 0.84720925 0
4.6607878 -3.8732367 0
4.8735515 -3.2039771 0
2.8874499 2.3083608 0
2.6330357 2.5546981 0
-9.9669055 1.16333 0
-9.9581414 1.193013 0
-9.8999097 1.1858554 0
-7.3340519 4.6887635 0
2.8239722 1.5746615 0
-1.5124305 -5.8797836 0
6.2747628 8.8219998 0
-0.19712089 2.2594936 0
-1.7808939 6.9898789 0
-3.40398 -7.4069646 0
-7.5127779 -7.3533279 0
-7.4874398 -7.3900247 0
-5.1625799 -9.466661 0
-4.3765547 -5.5298791 0
-3.4979126 -5.0696117 0
-4.4599827 -5.5787078 0
-4.0620458 -5.3630701 0
-3.0777446 -4.9209923 0
-1.3789547 -4.1769116 0
-7.303847 -7.4029398 0
-7.2341619 -7.3379212 0
-7.4160943 -7.4818191 0
-7.6205115 -7.1947085 0
-7.6094912 -7.1851153 0
-7.3378881 -7.5496331 0
-7.3379766 -7.5494447 0
-7.3425578 -7.5434066 0
-5.9197551 -6.2429904 0
-5.9086329 -6.300515 0
10.208538 0.48239764 0
5.1821394 9.5925401 0
8.7019288 -3.8439697 0
-10.048312 0.020410571 0
-12.125339 -1.5442059 0
-7.3994171 -3.1686074 0
-7.6145554 1.3793504 0
-7.8699312 0.90987337 0
-7.8701389 0.90990984 0
-7.8701396 0.90990645 0
-7.8701373 0.90991181 0
-7.8701377 0.9099104 0
-7.8701367 0.90991234 0
-7.8701277 0.90993184 0
-7.8702918 0.90956069 0
-7.8693538 0.91184215 0
-7.8703728 0.90937521 0
-7.8697915 0.90837796 0
-1.9761736 4.6581225 0
-1.9755147 4.6578353 0
-1.9755099 4.6578347 0
-1.975523 4.6578323 0
-1.9768695 4.6575627 0
-1.9768708 4.6575712 0
-1.9772702 4.6575077 0
-1.9478241 4.6582795 0
-8.0991287 -2.5765992 0
-10.009821 -0.031316807 0
-9.9725243 0.10523988 0
-10.042891 -0.037161687 0
-10.032938 0.067349433 0
-9.2892496 -1.498829 0
6.1872597 -3.7864133 0
6.0156261 -3.9472618 0
5.9935049 -3.9690146 0
6.0044544 -3.9582672 0
5.991299 -3.9711806 0
5.996588 -3.9659885 0
5.9965209 -3.9660483 0
6.0183981 -3.9446439 0
5.8456594 -4.1126071 0
5.8630298 -4.0958883 0
7.5401169 -2.7347714 0
7.4636814 -2.8550674 0
6.6316457 -3.5997015 0
6.6310928 -3.6005907 0
6.5996892 -3.6433091 0
6.5993531 -3.6434879 0
7.0710227 -2.9765489 0
7.065487 -2.979808 0
-7.65533 -3.7357429 0
6.1254349 -4.1653005 0
-9.9811287 -0.052778371 0
0.80734606 -12.743701 0
-9.9926598 -0.013746949 0
-10.000729 0.0021628146 0
2.7474938 10.470825 0
-9.9365851 -0.20675348 0
-9.9341699 -0.20430111 0
-9.9341299 -0.204282 0
-9.9341479 -0.20428342 0
-9.9341262 -0.20428171 0
-9.9341349 -0.20428233 0
-9.9341348 -0.20428226 0
-9.9341706 -0.20428588 0
-9.9339053 -0.20426575 0
-9.9339286 -0.20425992 0
-9.9365829 -0.2043615 0
-9.9359646 -0.20596785 0
-10.001985 -0.010977328 0
-10.001964 -0.011060591 0
-10.001916 -0.011063257 0
-10.001913 -0.01106775 0
-10.002516 -0.011067375 0
-10.00249 -0.011107762 0
-9.9972975 -0.010288653 0
-10.004581 -0.01077231 0
3.3753969 9.8950981 0
-10.00229 0.0053258123 0
-10.001609 -0.0010935621 0
-10.000051 2.8855786e-05 0
-10.002929 0.0018894681 0
4.9508743 4.5316159 0
5.2324821 4.988757 0
5.232708 4.9887586 0
5.232709 4.9887618 0
5.2327065 4.988757 0
5.232707 4.9887583 0
5.2327059 4.9887565 0
5.2326959 4.9887377 0
5.2328788 4.9890929 0
5.2318327 4.9869117 0
5.2329619 4.9892707 0
5.2323883 4.9900107 0
-0.82600123 1.2646022 0
-0.82671082 1.2647798 0
-0.82671584 1.2647798 0
-0.8267024 1.2647828 0
-0.82534723 1.2650987 0
-0.82534511 1.265091 0
-0.82494672 1.2651825 0
-0.85462392 1.2616059 0
-10.003516 -0.0042928922 0
-10.00002 0.0061973768 0
-10.000009 1.3196768e-05 0
-10.000002 5.7982013e-07 0
-10.000016 6.6236746e-06 0
-10.000049 5.8149362e-07 0
-10.000049 -9.4816807e-07 0
-10.000049 -8.5906642e-07 0
-10.000049 -8.5932004e-07 0
-10.000049 -8.5931692e-07 0
-10.000049 -8.5931774e-07 0
-10.000049 -8.5933529e-07 0
-10.000049 -8.5925051e-07 0
-10.000049 -8.5980546e-07 0
-10.000049 -8.587617e-07 0
-10.000049 -8.5895363e-07 0
-10.000048 -1.7506429e-06 0
-10.000041 -8.300768e-07 0
-10.000041 -5.4823649e-07 0
-10.000041 -5.0874707e-07 0
-10.00004 -5.0867818e-07 0
-10.00004 -5.0878125e-07 0
-10.00004 -5.0852021e-07 0
-10.00004 -2.6717108e-07 0
-10.000035 -2.0702524e-05 0
-10.000012 -0.0062036616 0
-9.9999992 0.0062019182 0
-9.9999992 1.6972584e-05 0
-9.9999991 -2.4272252e-07 0
-9.9999992 1.9600762e-08 0
-9.9999993 1.6439832e-08 0
-9.9999994 -4.6744405e-09 0
-9.9999994 -4.8203234e-09 0
-9.9999994 -4.8318696e-09 0
-9.9999994 -4.8067081e-09 0
-9.9999994 -4.7952689e-09 0
-9.9999993 -4.8050599e-09 0
-9.9999993 -4.8149381e-09 0
-9.9999993 -4.8156e-09 0
-9.9999993 -4.8038497e-09 0
-9.9999993 -4.8035554e-09 0
-9.9999992 -2.4740186e-08 0
-9.9999991 -2.1058335e-08 0
-9.9999991 -7.3915654e-09 0
-9.9999991 -7.3637661e-09 0
-9.9999991 -7.3637474e-09 0
-9.999999 -7.397827e-09 0
-9.999999 -7.1774711e-09 0
-9.999999 2.3536855e-07 0
-9.999999 -1.6979991e-05 0
-9.9999989 -0.0062019247 0
-9.9999989 0.0062019182 0
-9.9999989 1.6972559e-05 0
-9.9999989 -2.4276876e-07 0
-9.9999989 -2.241601e-10 0
-9.9999988 -6.7402421e-12 0
-9.9999988 -2.903275e-12 0
-9.9999988 1.4292715e-14 0
-9.9999987 -2.8728481e-15 0
-9.9999987 -4.7768964e-15 0
-9.9999985 2.3382934e-14 0
-9.9999985 1.3662048e-11 0
-9.9999985 7.5271263e-12 0
-9.9999985 -8.3000207e-12 0
-9.9999985 -2.3118594e-11 0
-9.9999985 -4.5902052e-11 0
-9.9999985 2.7390283e-11 0
-9.9999984 5.2935381e-11 0
-9.9999984 2.9800307e-12 0
-9.9999984 3.0953011e-12 0
-9.9999984 1.7838856e-11 0
-9.9999984 1.6113742e-11 0
-9.9999984 2.193354e-10 0
-9.9999984 2.4276152e-07 0
-9.9999984 -1.6972566e-05 0
-9.9999982 -0.0062019182 0
-9.9999982 0.0062019182 0
-9.9999982 1.6972567e-05 0
-9.9999982 -2.4276755e-07 0
-9.9999982 -2.0822255e-10 0
-9.9999982 1.9614053e-11 0
-9.9999981 -1.4184549e-11 0
-9.9999981 1.1784701e-12 0
-9.9999981 2.754079e-11 0
-9.9999981 1.245484e-11 0
-9.9999981 9.9565745e-13 0
-9.9999981 6.8755351e-13 0
-9.9999981 1.6465688e-11 0
-9.9999979 1.6466302e-11 0
-9.9999979 6.7860569e-13 0
-9.9999978 -5.13975e-11 0
-9.9999977 -8.1526538e-11 0
-9.9999981 1.746974e-10 0
-9.9999981 1.3476447e-10 0
-9.9999981 1.149828e-10 0
-9.9999981 9.2543928e-11 0
-9.9999981 8.1018282e-11 0
-9.9999981 3.2385205e-10 0
-9.9999981 2.4288964e-07 0
-9.9999981 -1.6972407e-05 0
-9.999998 -0.0062019181 0
-9.999998 0.0062019182 0
-9.9999979 1.6973392e-05 0
-9.9999979 -2.4264063e-07 0
-9.9999979 -9.2295919e-11 0
-9.9999979 1.306109e-10 0
-9.9999979 1.1981401e-10 0
-9.9999978 1.0863426e-10 0
-9.9999978 1.0862393e-10 0
-9.9999978 1.1746143e-10 0
-9.9999978 1.1744744e-10 0
-9.9999978 1.1745864e-10 0
-9.9999978 1.2384278e-10 0
-9.9999978 1.0406734e-10 0
-9.9999977 1.4265009e-10 0
-9.9999977 1.8699814e-10 0
-9.9999971 -1.5728779e-09 0
-9.9999971 4.8860117e-07 0
-9.9999971 4.8742601e-07 0
-9.9999971 4.8742156e-07 0
-9.9999971 4.8739049e-07 0
-9.999997 4.8744736e-07 0
-9.999997 4.8767273e-07 0
-9.999997 7.3010894e-07 0
-9.9999969 -1.6484952e-05 0
-9.9999969 -0.0062014293 0
-9.9999896 0.0062019163 0
-9.9999967 1.7467404e-05 0
-9.9999967 2.4487934e-07 0
-9.9999967 4.8742348e-07 0
-9.9999967 4.8789954e-07 0
-9.9999966 4.8707316e-07 0
-9.9999966 4.8712881e-07 0
-9.9999965 4.8710303e-07 0
-9.9999965 4.8710305e-07 0
-9.9999965 4.8711416e-07 0
-9.9999965 4.8713936e-07 0
-9.9999965 4.8676932e-07 0
-9.9999965 4.8752405e-07 0
-9.9999965 4.8759796e-07 0
-9.9999965 4.8765028e-07 0
-9.9999965 4.8218475e-07 0
-9.9999959 9.7922602e-07 0
-9.9999959 9.7381001e-07 0
-9.9999959 9.7381699e-07 0
-9.9999959 9.7331707e-07 0
-9.9999954 1.4613172e-06 0
-9.9999953 1.4610227e-06 0
-9.9999953 1.7016677e-06 0
-9.9999948 -1.5023168e-05 0
-9.9999948 -0.0061999677 0
-9.9999655 0.0062019083 0
-9.9999947 1.8936396e-05 0
-9.9999947 1.7048023e-06 0
-9.9999947 1.9473294e-06 0
-9.9999948 1.9533849e-06 0
-9.9999948 1.4556597e-06 0
-9.9999947 1.4615022e-06 0
-9.9999947 1.4615201e-06 0
-9.9999946 1.4615119e-06 0
-9.9999946 1.4615249e-06 0
-9.9999946 1.4615072e-06 0
-9.9999947 1.4540533e-06 0
-9.9999942 1.9550172e-06 0
-9.9999941 1.9501145e-06 0
-9.9999941 1.9500765e-06 0
-9.9999941 1.9501692e-06 0
-9.9999941 1.950948e-06 0
-9.9999939 1.9505829e-06 0
-9.9999939 1.9505843e-06 0
-9.9999939 1.9502054e-06 0
-9.9999933 2.4380279e-06 0
-9.9999932 2.4378539e-06 0
-9.9999932 2.680135e-06 0
-9.9999931 -1.4534334e-05 0
-9.9999931 -0.006199473 0
-9.999957 0.0062019061 0
-9.9999929 1.9442988e-05 0
-9.9999929 2.1953732e-06 0
-9.9999929 2.4379127e-06 0
-9.9999929 2.4383467e-06 0
-9.9999929 2.4375325e-06 0
-9.9999929 2.4377989e-06 0
-9.9999929 2.4377061e-06 0
-9.9999927 2.4378792e-06 0
-9.9999927 2.4379037e-06 0
-9.9999927 2.4377886e-06 0
-9.9999927 2.4098525e-06 0
-9.9999841 8.7934818e-06 0
-9.9999841 8.7651249e-06 0
-9.9999841 8.764956e-06 0
-9.9999837 8.7650698e-06 0
-9.9999836 9.2522695e-06 0
-9.9999835 9.2522006e-06 0
-9.9999835 9.2508393e-06 0
-9.9999835 9.2537574e-06 0
-9.9999834 9.2540031e-06 0
-9.9999834 9.2541772e-06 0
-9.9999834 9.4928396e-06 0
-9.9999828 -7.2280456e-06 0
-9.9999827 -0.0061921566 0
-9.9998366 0.006201872 0
-9.9999826 2.6806615e-05 0
-9.999982 9.4972791e-06 0
-9.999982 1.0226664e-05 0
-9.9999814 1.0715266e-05 0
-9.9999814 1.0714704e-05 0
-9.9999814 1.0714736e-05 0
-9.9999815 1.0713504e-05 0
-9.9999809 1.1202838e-05 0
-9.9999809 1.1201519e-05 0
-9.9999809 1.1201493e-05 0
-9.9999808 1.120227e-05 0
-9.9999808 1.1206239e-05 0
-9.9999808 1.12042e-05 0
-9.9999809 1.1202796e-05 0
-9.9999804 1.1692646e-05 0
-9.9999803 1.1691437e-05 0
-9.9999803 1.1691388e-05 0
-9.9999803 1.1671224e-05 0
-9.9999758 1.6091744e-05 0
-9.9999758 1.6071407e-05 0
-9.9999752 1.6070767e-05 0
-9.9999752 1.6801899e-05 0
-9.9999751 -4.1403148e-07 0
-9.9999745 -0.0061848378 0
-9.9997187 0.006201851 0
-9.9999741 3.4142127e-05 0
-9.9999737 1.6801222e-05 0
-9.9999737 1.7533175e-05 0
-9.9999737 1.7528003e-05 0
-9.9999727 1.8509709e-05 0
-9.9999726 1.8506052e-05 0
-9.9999726 1.8506338e-05 0
-9.9999726 1.8506242e-05 0
-9.9999726 1.8507344e-05 0
-9.999972 1.8506346e-05 0
-9.999972 1.89955e-05 0
-9.999972 1.8994293e-05 0
-9.9999721 1.8993439e-05 0
-9.999971 1.9965189e-05 0
-9.9999705 2.0459198e-05 0
-9.9999704 2.0455337e-05 0
-9.9999693 2.0941782e-05 0
-9.9999693 2.1429409e-05 0
-9.9999693 2.1431474e-05 0
-9.9999693 2.1429765e-05 0
-9.9999693 2.1430144e-05 0
-9.9999692 2.167429e-05 0
-9.9999692 4.459238e-06 0
-9.9999692 -0.0061804435 0
-9.9996673 0.0062025295 0
-9.9999926 3.3245042e-05 0
-9.9999916 1.6810001e-05 0
-9.9999911 1.7538982e-05 0
-9.9999906 1.7536139e-05 0
-9.9999902 1.8018956e-05 0
-9.9999896 1.899994e-05 0
-9.9999884 1.9488071e-05 0
-9.9999878 1.99657e-05 0
-9.9999866 2.0950064e-05 0
-9.9999866 2.1430663e-05 0
-9.9999866 2.1430486e-05 0
-9.9999861 2.1429926e-05 0
-9.999986 2.1912809e-05 0
-9.9999855 2.2408919e-05 0
-9.999985 2.2402394e-05 0
-9.9999845 2.2892665e-05 0
-9.9999845 2.3378317e-05 0
-9.9999845 2.3378132e-05 0
-9.9999762 2.3376919e-05 0
-9.9999756 2.4352202e-05 0
-9.9999672 2.4836644e-05 0
-9.9999673 2.5077959e-05 0
-9.9999673 7.7858288e-06 0
-9.9999692 -0.0061777188 0
-10.005451 0.0058587821 0
-10.006152 4.3997552e-05 0
-10.006152 2.4653516e-05 0
-10.006151 2.5384485e-05 0
-10.00615 2.6361121e-05 0
-10.00615 2.6359096e-05 0
-10.00615 2.6362243e-05 0
-10.006151 2.5868826e-05 0
-10.006159 2.5380957e-05 0
-10.006159 2.5380264e-05 0
-10.006158 2.5376866e-05 0
-10.006158 2.6359868e-05 0
-10.006158 2.6354666e-05 0
-10.006157 2.6846521e-05 0
-10.006157 2.6845129e-05 0
-10.006157 2.7335369e-05 0
-10.006156 2.733414e-05 0
-10.006156 2.7824848e-05 0
-10.006156 2.7824379e-05 0
-10.006156 2.7821669e-05 0
-10.006155 2.8807542e-05 0
-10.006155 2.8798762e-05 0
-10.006146 2.9520663e-05 0
-10.006147 1.0792581e-05 0
-10.005804 -0.0058296271 0
9.3797544 -3.8489297 0
-0.7859018 3.3725207 0
-7.9539701 -4.514065 0
6.9792408 -11.518772 0
0.58286648 14.022231 0
7.8678588 -9.7612205 0
7.0388669 -0.87588056 0
-5.5505983 -3.9262574 0
-4.6415521 -4.8877879 0
2.2539687 5.3404438 0
6.6697025 6.7083633 0
10.478186 -5.7692169 0
-3.6225023 -2.2232898 0
-2.356429 -8.6310526 0
-8.066474 2.0700562 0
-3.5087056 13.719537 0
-1.8209208 2.8936635 0
-11.334234 1.9754537 0
-2.4063442 8.768864 0
0.36783679 -10.119988 0
-12.909128 4.7958781 0
6.1195668 -0.82275042 0
-8.7508543 11.977808 0
-6.3245719 6.0751172 0
-9.0815033 4.9440293 0
9.5783473 -2.5979034 0
-3.5038178 6.6312228 0
-0.9512113 -0.8876869 0
-7.3332343 6.2068404 0
-7.9281774 7.7817006 0
3.9883467 1.9952976 0
1.2211052 3.6458122 0
1.2621197 -2.5627475 0
6.2497443 -5.4570168 0
-8.2228168 -7.3430734 0
1.850308 -3.4295933 0
1.9711945 -1.2364 0
-7.4756069 -1.4242958 0
-8.8390775 -2.7226336 0
-7.0805969 10.201546 0
4.3360412 12.030036 0
2.7336495 0.50861385 0
5.1237107 -12.598584 0
10.496297 4.5279735 0
8.5203278 4.6291459 0
6.312042 13.077812 0
1.8103408 0.63894695 0
4.4386545 -0.5608333 0
-8.6297142 -3.8823645 0
-0.12005339 9.3401542 0
8.0726527 -4.2382451 0
1.7922905 1.5350761 0
10.734495 4.5973691 0
3.1969574 -8.1904278 0
-3.9688569 11.559065 0
-8.6005336 9.3975897 0
6.365486 -6.8795688 0
12.532381 6.7755697 0
7.6512279 8.581105 0
-7.7051023 1.928062 0
7.3475614 9.2601094 0
7.6753168 6.9433641 0
1.8065309 -7.9944411 0
2.667402 -1.9151039 0
7.4753632 7.8507075 0
9.9170477 -4.2994112 0
-6.1834973 11.373477 0
5.4601678 3.4996514 0
-2.2429222 3.9907684 0
-1.4912701 -5.9411845 0
10.335049 -6.2221528 0
13.652502 -1.9331251 0
-3.532298 -8.2516842 0
-0.81172538 -5.617922 0
3.2095594 -9.4506496 0
-6.5487699 -6.7370532 0