# vtk DataFile Version 4.0
hesp visualization file
ASCII
DATASET UNSTRUCTURED_GRID
POINTS 1250 double
27.768135 -5.4500781 4
27.445763 -3.7471219 4
31.196522 -4.2965449 4
27.363522 2.646633 4
31.149556 7.0302641 4
33.689793 3.6981651 4
33.033184 -1.5036873 4
37.071163 11.433618 4
30.436206 13.005571 4
30.227448 8.8996979 4
34.427988 12.059803 4
30.558306 10.988248 4
31.395218 12.023431 4
31.661201 14.360756 4
29.416376 20.447965 4
34.230492 14.225026 4
27.780804 25.15653 4
29.952414 20.064963 4
30.605547 22.256715 4
31.194812 30.847415 4
30.611225 24.42411 4
30.814576 26.373535 4
31.099869 21.560794 4
30.765368 45.503394 4
30.744789 37.756698 4
42.1809 -10.582425 4
26.769644 -3.3240572 4
25.794159 -7.4372841 4
30.429618 2.0984509 4
27.920835 6.9264527 4
27.764492 2.6648123 4
26.641184 -0.20443594 4
26.266725 2.1952694 4
28.443971 2.3204923 4
28.058108 4.9024093 4
28.926787 10.206221 4
34.165441 9.2835667 4
29.80311 15.879768 4
29.103131 11.604464 4
32.789997 12.130878 4
27.527597 22.746043 4
28.338667 13.341541 4
26.287178 17.892534 4
34.085457 18.625433 4
32.07437 24.986788 4
28.81963 31.030928 4
31.208037 20.50718 4
30.066274 31.765889 4
30.346809 41.157942 4
30.485663 32.942091 4
31.040911 -4.8041948 4
31.186591 -12.870126 4
29.933851 -2.662875 4
34.495588 3.0164367 4
37.686535 -6.6832915 4
34.976479 3.1679582 4
30.522409 -3.2780512 4
35.051751 10.432409 4
33.709002 10.825475 4
32.621242 10.084622 4
30.128569 7.6802802 4
29.313425 10.082696 4
31.9673 11.855704 4
33.494057 8.0830067 4
32.434085 12.291973 4
32.383321 11.995237 4
31.570497 16.576984 4
36.653594 20.869469 4
31.031426 16.75862 4
27.823935 30.194997 4
28.372377 21.459712 4
36.427055 22.467267 4
31.088184 18.880828 4
34.391856 31.653254 4
32.058469 26.646144 4
37.950211 -16.597516 4
30.081624 -3.5193806 4
31.518843 8.1292955 4
34.718952 -7.0989895 4
26.295754 5.8239706 4
29.902307 8.3590672 4
26.961462 9.8547998 4
32.354078 10.098245 4
29.828122 11.567426 4
30.562941 8.7540558 4
29.95178 14.42645 4
32.907019 8.4684811 4
30.40889 15.475512 4
32.835078 18.481457 4
30.529651 11.451784 4
31.153535 17.90626 4
28.395937 15.107788 4
33.155786 13.165721 4
32.324013 19.548095 4
29.430985 21.471174 4
36.448381 12.665341 4
29.456429 23.205668 4
28.458908 27.061641 4
29.956981 28.763975 4
32.599132 45.492622 4
35.471046 -11.479273 4
27.535562 -11.630028 4
34.739374 2.4819744 4
34.673962 6.8730805 4
24.56611 -4.5386986 4
27.054706 6.4709168 4
31.386719 4.3571201 4
28.081659 2.3392153 4
35.875718 8.079042 4
35.909498 3.7425192 4
31.691819 7.3732006 4
34.672898 5.4994012 4
35.140418 13.047981 4
31.424865 9.9095296 4
35.073111 14.807817 4
38.042875 18.096111 4
32.672959 15.603878 4
30.57452 17.56263 4
31.282724 18.677577 4
36.202346 20.718235 4
32.158728 27.017308 4
34.281695 26.93919 4
36.201202 25.981318 4
31.937009 29.879104 4
31.165062 28.307443 4
28.179242 -9.0997138 4
27.159046 -10.041253 4
36.252233 9.2476264 4
34.883829 5.6521647 4
31.725132 2.2535903 4
35.301965 8.4412501 4
31.491144 6.9777357 4
36.218155 6.6830961 4
34.683184 11.707199 4
37.8637 15.430866 4
34.585034 15.28155 4
35.910082 15.936598 4
31.718778 20.250501 4
39.398761 16.348281 4
30.329138 13.504802 4
33.668341 24.22933 4
32.628607 21.245815 4
34.004634 23.850573 4
35.163757 27.662182 4
36.394999 30.163521 4
31.406747 31.123052 4
32.201573 19.866975 4
29.824299 29.263238 4
35.967999 36.668959 4
27.588262 31.012993 4
31.218187 2.558003 4
25.734387 -14.013978 4
35.238862 0.84051515 4
30.807276 -2.5712414 4
30.972249 -0.53861607 4
30.193318 6.0389481 4
30.11477 5.6698936 4
33.049551 9.0069445 4
31.52427 10.271176 4
28.030331 10.64491 4
37.207295 11.902112 4
31.165997 13.515245 4
31.077297 11.400392 4
34.065767 16.53126 4
30.964072 17.766224 4
27.841708 15.831921 4
31.105784 19.887052 4
29.122389 21.798498 4
34.623586 27.439776 4
32.854523 21.801173 4
30.795743 25.032284 4
31.513506 26.81327 4
31.96887 30.44794 4
33.216077 25.868782 4
26.462616 35.531383 4
44.440396 -6.7459879 4
31.193853 -1.1294503 4
32.83011 -6.5797178 4
32.152747 5.6235859 4
34.410184 9.9569582 4
28.0233 -6.8294571 4
35.266158 8.1517803 4
26.143411 7.0800251 4
36.05941 5.5636423 4
36.864281 7.730261 4
32.806574 12.764142 4
30.209801 14.352021 4
35.38335 21.481377 4
33.761336 11.1067 4
36.418025 15.424542 4
33.913133 18.966454 4
36.244346 15.777733 4
30.633119 22.61705 4
35.630453 21.405761 4
29.025034 22.218116 4
31.487886 20.444883 4
28.515133 32.98907 4
34.160129 30.912992 4
33.421102 29.899055 4
42.319724 38.27361 4
31.951385 5.3134866 4
32.638813 3.4533013 4
32.49209 0.50314202 4
33.249853 -8.6634382 4
30.820792 1.4328798 4
30.562285 3.9933855 4
34.542125 4.2784265 4
35.688433 9.9438649 4
35.181515 11.286068 4
35.390454 11.681352 4
32.447675 16.999589 4
32.588874 19.387748 4
30.507777 14.650074 4
30.94377 14.326993 4
35.347335 22.164947 4
37.536437 18.541325 4
31.455467 13.083683 4
31.989118 10.358027 4
31.487442 14.584352 4
35.563498 18.664156 4
36.404075 25.018965 4
36.754653 28.734617 4
33.620601 22.264839 4
36.236 31.925611 4
33.084218 28.869583 4
33.462156 -1.3165291 4
25.969006 -4.087205 4
35.907976 -1.1994018 4
34.082919 11.142492 4
31.361573 4.0379228 4
34.102913 7.6668944 4
35.023836 7.2288481 4
38.05973 8.6480105 4
35.462709 13.454497 4
38.923088 10.30173 4
34.105008 13.017024 4
30.726728 12.887006 4
32.897972 17.772243 4
35.909536 12.419891 4
32.191159 17.284118 4
33.681973 19.400853 4
36.069461 19.576397 4
34.072494 26.482091 4
33.38829 21.29993 4
34.934419 25.220034 4
32.515105 24.664364 4
31.759177 25.856193 4
31.51407 29.311064 4
34.461764 31.342349 4
25.533762 32.713139 4
26.51688 -7.5150826 4
32.346684 -0.98405888 4
32.270669 0.3588432 4
28.960031 -1.2491321 4
40.369456 4.9840118 4
34.211969 3.0427403 4
35.359137 7.7270854 4
34.938374 2.9043687 4
36.364923 8.5535007 4
35.692124 10.583445 4
34.702554 15.638648 4
37.696827 14.843326 4
41.08849 11.91801 4
39.467881 9.7637735 4
31.620156 17.26863 4
31.37371 18.282757 4
35.914596 14.633391 4
30.431182 21.085425 4
34.244708 19.989255 4
36.452492 23.217544 4
36.518873 27.16728 4
32.203087 21.201323 4
34.546667 23.276071 4
29.98712 29.608536 4
29.338645 33.398994 4
38.094517 -11.520252 4
28.779062 -1.5408604 4
29.876141 4.5960582 4
37.458591 5.5639425 4
35.100507 6.1460746 4
40.703686 5.7655422 4
35.49922 6.0542375 4
31.553535 9.5222775 4
36.316214 11.550329 4
31.696038 11.321891 4
34.903492 14.070498 4
32.566339 13.348291 4
35.172785 18.366153 4
32.034961 14.269649 4
38.059008 22.03734 4
36.403944 21.347751 4
34.038524 19.674492 4
33.775586 21.740296 4
32.975885 22.699768 4
33.680445 20.043975 4
33.844045 25.280281 4
35.069796 24.502391 4
30.190432 31.254818 4
30.048452 36.614366 4
40.178459 37.526699 4
33.699534 -3.2152829 4
34.513315 2.3232098 4
33.21556 1.4114394 4
29.673256 5.0052284 4
34.026488 4.6219098 4
35.735027 -0.77707838 4
37.158906 7.3699414 4
37.852845 10.643464 4
38.407972 9.5844658 4
32.594459 10.600299 4
36.97704 9.5636973 4
34.066045 13.266084 4
34.492762 16.033573 4
32.255424 15.09528 4
33.788026 16.140418 4
48.73134 16.224422 4
35.262923 23.739242 4
34.764452 23.498116 4
33.25545 22.47118 4
38.638462 30.09931 4
35.724043 29.632213 4
36.337071 26.333583 4
37.009041 28.267452 4
34.111724 35.233551 4
32.781963 36.786818 4
34.684899 -6.0489726 4
33.358298 -0.22764399 4
36.386067 3.4596266 4
33.650995 5.0165325 4
31.271915 1.4886839 4
38.516912 7.3304556 4
33.345917 6.2892973 4
37.135046 8.6388103 4
34.772202 6.6427145 4
33.964011 7.2643202 4
38.016002 10.29923 4
35.42334 12.691789 4
31.155483 15.045668 4
37.396286 14.281399 4
38.843094 18.462249 4
36.555066 14.628591 4
38.908642 17.580395 4
36.772844 17.24268 4
35.304425 17.541174 4
36.879173 22.159967 4
36.837037 23.296886 4
34.223939 23.410315 4
34.542581 25.126983 4
38.565336 33.253243 4
34.299346 34.169254 4
37.201644 2.1445395 4
34.461685 -8.0045436 4
35.224464 2.5106171 4
33.473073 2.2442494 4
33.943409 3.5284036 4
36.402467 6.2975868 4
35.008804 4.6484081 4
32.572724 7.384087 4
36.057549 14.176017 4
36.781988 8.1608295 4
35.292574 16.038781 4
35.287719 12.45625 4
39.011947 15.929495 4
35.447509 16.661899 4
34.62534 18.79974 4
33.389178 18.881982 4
36.219016 18.691121 4
37.611283 20.923227 4
35.750904 22.783685 4
35.43027 25.831068 4
35.251518 25.369625 4
32.787404 29.273144 4
37.009542 21.238582 4
34.631947 32.970312 4
37.556195 30.659829 4
34.122233 0.091069182 4
36.703034 -0.62816747 4
33.675703 1.8109359 4
32.575907 5.2390715 4
35.400906 4.7349178 4
37.978004 9.1221667 4
36.159696 11.897548 4
37.839384 12.602128 4
37.054578 11.016599 4
38.825037 14.293856 4
35.617172 16.295432 4
37.722076 16.121915 4
35.294721 19.04539 4
39.57877 18.998455 4
35.777776 18.031902 4
40.682116 17.738889 4
36.585612 17.963779 4
36.368683 18.373222 4
39.61442 15.799387 4
38.300837 19.464112 4
37.259328 20.362229 4
37.890379 28.740918 4
38.290318 31.925414 4
32.643946 26.460716 4
31.016672 31.986176 4
37.463611 0.18803752 4
36.775279 2.2373578 4
34.300902 -0.66121869 4
37.086291 3.6709494 4
35.333592 5.3950942 4
36.130266 7.9440903 4
40.516803 10.580229 4
36.270661 5.9566135 4
34.782854 8.0897069 4
36.986307 12.074107 4
33.087379 16.177826 4
36.569909 10.608649 4
35.258516 13.274934 4
36.85339 18.286548 4
37.487551 17.199091 4
36.600462 15.811995 4
35.498227 17.019528 4
35.556526 20.580942 4
37.902913 20.835782 4
35.352175 24.290315 4
35.549543 25.185358 4
35.281331 24.674222 4
36.712276 25.278373 4
31.743621 32.343558 4
33.833104 29.749512 4
36.940234 0.76728579 4
37.694585 1.3721067 4
36.253475 2.5716464 4
36.764745 3.1742129 4
38.04932 5.2557661 4
36.70082 5.9851782 4
38.189855 7.7671105 4
37.309766 10.126877 4
36.341437 11.049051 4
38.287383 13.729874 4
36.854989 14.698328 4
37.816442 15.165744 4
39.332515 14.356099 4
36.853139 17.843237 4
35.112961 18.051752 4
39.246139 22.693555 4
36.920963 19.764001 4
36.867981 20.597499 4
37.23411 22.21829 4
40.176327 22.251987 4
37.525394 24.058697 4
37.536389 22.811604 4
35.675903 26.951817 4
37.231605 24.732083 4
37.095939 30.838159 4
36.446514 -1.2573086 4
[...]
POINT_DATA 1250
SCALARS m double
LOOKUP_TABLE default
1
1
1
1
1
1
1
1
1
1
1
1
1
1
1
1
1
1
1
1
1
1
1
1
1
1
1
1
1
1
1
1
1
1
1
1
1
1
1
1
1
1
1
1
1
1
1
1
1
1
1
1
1
1
1
1
1
1
1
1
1
1
1
1
1
1
1
1
1
1
1
1
1
1
1
1
1
1
1
1
1
1
1
1
1
1
1
1
1
1
1
1
1
1
1
1
1
1
1
1
1
1
1
1
1
1
1
1
1
1
1
1
1
1
1
1
1
1
1
1
1
1
1
1
1
1
1
1
1
1
1
1
1
1
1
1
1
1
1
1
1
1
1
1
1
1
1
1
1
1
1
1
1
1
1
1
1
1
1
1
1
1
1
1
1
1
1
1
1
1
1
1
1
1
1
1
1
1
1
1
1
1
1
1
1
1
1
1
1
1
1
1
1
1
1
1
1
1
1
1
1
1
1
1
1
1
1
1
1
1
1
1
1
1
1
1
1
1
1
1
1
1
1
1
1
1
1
1
1
1
1
1
1
1
1
1
1
1
1
1
1
1
1
1
1
1
1
1
1
1
1
1
1
1
1
1
1
1
1
1
1
1
1
1
1
1
1
1
1
1
1
1
1
1
1
1
1
1
1
1
1
1
1
1
1
1
1
1
1
1
1
1
1
1
1
1
1
1
1
1
1
1
1
1
1
1
1
1
1
1
1
1
1
1
1
1
1
1
1
1
1
1
1
1
1
1
1
1
1
1
1
1
1
1
1
1
1
1
1
1
1
1
1
1
1
1
1
1
1
1
1
1
1
1
1
1
1
1
1
1
1
1
1
1
1
1
1
1
1
1
1
1
1
1
1
1
1
1
1
1
1
1
1
1
1
1
1
1
1
1
1
1
1
1
1
1
1
1
1
1
1
1
1
1
1
1
1
1
1
1
1
1
1
1
1
1
1
1
1
1
1
1
1
1
1
1
1
1
1
1
1
1
1
1
1
1
1
1
1
1
1
1
1
1
1
1
1
1
1
1
1
1
1
1
1
1
1
1
1
1
1
1
1
1
1
1
1
1
1
1
1
1
1
1
1
1
1
1
1
1
1
1
1
1
1
1
1
1
1
1
1
1
1
1
1
1
1
1
1
1
1
1
1
1
1
1
1
1
1
1
1
1
1
1
1
1
1
1
1
1
1
1
1
1
1
1
1
1
1
1
1
1
1
1
1
1
1
1
1
1
1
1
1
1
1
1
1
1
1
1
1
1
1
1
1
1
1
1
1
1
1
1
1
1
1
1
1
1
1
1
1
1
1
1
1
1
1
1
1
1
1
1
1
1
1
1
1
1
1
1
1
1
1
1
1
1
1
1
1
1
1
1
1
1
1
1
1
1
1
1
1
1
1
1
1
1
1
1
1
1
1
1
1
1
1
1
1
1
1
1
1
1
1
1
1
1
1
1
1
1
1
1
1
1
1
1
1
1
1
1
1
1
1
1
1
1
1
1
1
1
1
1
1
1
1
1
1
1
1
1
1
1
1
1
1
1
1
1
1
1
1
1
1
1
1
1
1
1
1
1
1
1
1
1
1
1
1
1
1
1
1
1
1
1
1
1
1
1
1
1
1
1
1
1
1
1
1
1
1
1
1
1
1
1
1
1
1
1
1
1
1
1
1
1
1
1
1
1
1
1
1
1
1
1
1
1
1
1
1
1
1
1
1
1
1
1
1
1
1
1
1
1
1
1
1
1
1
1
1
1
1
1
1
1
1
1
1
1
1
1
1
1
1
1
1
1
1
1
1
1
1
1
1
1
1
1
1
1
1
1
1
1
1
1
1
1
1
1
1
1
1
1
1
1
1
1
1
1
1
1
1
1
1
1
1
1
1
1
1
1
1
1
1
1
1
1
1
1
1
1
1
1
1
1
1
1
1
1
1
1
1
1
1
1
1
1
1
1
1
1
1
1
1
1
1
1
1
1
1
1
1
1
1
1
1
1
1
1
1
1
1
1
1
1
1
1
1
1
1
1
1
1
1
1
1
1
1
1
1
1
1
1
1
1
1
1
1
1
1
1
1
1
1
1
1
1
1
1
1
1
1
1
1
1
1
1
1
1
1
1
1
1
1
1
1
1
1
1
1
1
1
1
1
1
1
1
1
1
1
1
1
1
1
1
1
1
1
1
1
1
1
1
1
1
1
1
1
1
1
1
1
1
1
1
1
1
1
1
1
1
1
1
1
1
1
1
1
1
1
1
1
1
1
1
1
1
1
1
1
1
1
1
1
1
1
1
1
1
1
1
1
1
1
1
1
1
1
1
1
1
1
1
1
1
1
1
1
1
1
1
1
1
1
1
1
1
1
1
1
1
1
1
1
1
1
1
1
1
1
1
1
1
1
1
1
1
1
1
1
1
1
1
1
1
1
1
1
1
1
1
1
1
1
1
1
1
1
1
1
1
1
1
1
1
1
1
1
1
1
1
1
1
1
1
1
1
1
1
1
1
1
1
1
1
1
1
1
1
1
1
1
1
1
1
1
1
1
1
1
1
1
1
1
1
1
1
1
1
1
1
1
1
1
1
1
1
1
1
1
1
1
1
1
1
1
1
1
1
1
1
1
1
1
1
1
1
1
1
1
1
1
1
1
1
1
1
1
1
1
1
1
1
1
1
1
1
1
1
1
1
1
1
1
1
1
1
1
1
1
1
1
1
1
1
1
1
1
1
1
1
1
1
1
1
1
1
1
1
1
1
1
1
1
1
1
1
1
1
1
1
1
1
1
1
1
1
1
1
1
1
1
1
1
1
1
1
1
1
1
1
1
1
1
1
1
1
1
1
1
1
VECTORS v double
1.6617187 -8.8870372 0
3.6596605 -10.050833 0
-1.3202219 -16.182588 0
-6.2353688 -5.4424027 0
8.1987727 -15.825485 0
-0.44778981 -3.8778839 0
3.0282279 -23.456014 0
-9.7356569 -2.3925599 0
6.0519511 1.5019534 0
18.960068 -10.179074 0
-1.7735907 0.99199822 0
2.9366663 0.77652596 0
5.7746795 -9.0756446 0
-11.670759 2.8825398 0
-2.8263993 1.4400712 0
5.774169 -8.0835729 0
-9.1949313 6.7881914 0
-6.9067869 -11.382206 0
-0.52401037 7.6956385 0
0.057679027 3.0928378 0
-10.243318 16.917513 0
2.0844476 7.601448 0
11.093175 1.0279162 0
0.20849215 22.96212 0
1.7615534 11.109465 0
8.8399697 -9.0826405 0
-0.23306584 -9.64859 0
-0.79001781 -13.18849 0
4.1877871 -9.3498747 0
-2.2378464 5.5116413 0
-2.500442 2.5958669 0
-7.4108921 -7.511634 0
15.043611 -28.08955 0
5.0682512 -11.69035 0
4.0417448 -14.066097 0
-15.416841 -8.552541 0
9.8377238 -13.882153 0
-1.2477952 -2.898225 0
4.2953864 -6.0101949 0
-6.9225833 1.016408 0
3.2379209 -5.2722113 0
-3.0205299 0.019324921 0
-0.23202019 1.8528114 0
2.1135716 -1.9860327 0
0.0085052154 -2.961675 0
0.37730331 11.144913 0
6.1753145 2.9121649 0
8.2184632 0.95083678 0
1.4688747 13.663978 0
-1.6231496 3.7039319 0
9.0870154 -13.300308 0
3.1086711 -15.900937 0
4.2671526 -7.2202935 0
-11.801101 -5.6147859 0
10.755252 -12.551463 0
10.498377 -9.7540395 0
3.7600791 -12.725451 0
2.7895359 1.9794357 0
-4.1269298 -9.4337196 0
4.0824884 -5.3228524 0
1.5587442 -5.2935656 0
-5.9247056 1.4040147 0
-6.2205785 -8.6598241 0
-1.293052 -5.5176161 0
1.8944346 -1.9181041 0
-16.701744 6.0732805 0
-6.3756463 -5.1087537 0
-1.2829461 5.7100616 0
0.7981043 1.0152655 0
-5.8007243 16.197131 0
-6.1188925 -2.8457136 0
-0.84855655 3.8862324 0
-1.4160865 7.0669711 0
-2.0762004 5.5986421 0
-5.8856103 3.9116959 0
3.9466542 -13.879275 0
-3.349714 -4.9601807 0
-2.5077975 4.4895784 0
5.1170097 -14.874283 0
2.5302493 -1.8202967 0
-9.580152 -4.0325826 0
-9.919318 -12.032669 0
9.4690519 -5.4664534 0
5.3216196 -14.979925 0
-5.418685 7.5934302 0
-5.6119009 -0.44544472 0
-6.7807913 -6.8462483 0
13.004456 -9.1262102 0
6.1493166 -9.9720557 0
-17.334892 -15.747331 0
-16.30919 -5.6888727 0
-6.5681522 -7.4016352 0
9.7496603 2.2500858 0
-4.7832511 -0.078053568 0
-5.2677688 10.579953 0
1.230199 -18.63412 0
-1.1657677 -3.6804378 0
5.3622185 2.5365292 0
-1.5847995 8.1979001 0
0.47112847 14.494977 0
3.3724311 -12.746329 0
-5.5576693 -14.755647 0
-5.8456248 -6.3052882 0
14.45621 10.142593 0
-7.769475 -8.76087 0
-9.8669147 6.1987195 0
-4.0062872 -11.214304 0
3.1216134 6.3165141 0
-5.3659081 3.7894391 0
-1.8873457 3.2933851 0
-0.86522928 -1.7627773 0
1.3623209 -7.3671938 0
3.4026503 -5.5861971 0
4.7902771 2.3707156 0
2.6996934 8.0788274 0
1.7128034 -2.3842435 0
4.6174122 -13.601737 0
2.0575716 -10.890329 0
3.9596559 -0.94496264 0
3.7160883 10.141033 0
-4.2240044 3.8560581 0
2.4316093 8.637053 0
2.3750015 9.729112 0
-2.7220242 9.4493046 0
6.2046568 1.6173737 0
-2.3605392 -9.002684 0
0.090939696 -22.495513 0
6.8741311 6.6094091 0
-7.4322075 -2.8456616 0
1.5591384 0.051765836 0
21.910486 -13.055323 0
1.072696 -14.844179 0
1.0158965 -9.4101515 0
3.0794396 11.091934 0
6.1297291 -3.3919956 0
2.1897638 -1.017372 0
0.89204873 0.70295955 0
4.4555837 8.311424 0
4.8992745 0.8504917 0
9.7358124 -4.1290008 0
0.77718231 -3.5324627 0
-3.1558037 15.512928 0
15.120387 5.6867199 0
2.0361138 8.6336645 0
-1.0114047 10.628204 0
7.1059695 7.3064329 0
-4.4759073 -1.1480842 0
-7.0185557 2.4170026 0
2.7835319 9.3003579 0
14.734684 11.753645 0
-4.0457069 9.8701666 0
-7.1221573 -15.01762 0
-6.250314 -14.133876 0
-3.8497082 -9.4017805 0
-1.0520139 -7.8962889 0
9.0371996 -6.8838967 0
-6.4473082 -1.1130263 0
3.1964505 -2.5531486 0
0.28930619 -2.0059067 0
0.087800238 2.0122706 0
10.680398 18.259227 0
6.4804471 1.2889487 0
-0.88257537 -1.3576642 0
-1.124834 -1.967769 0
-6.4450945 25.698365 0
-2.7334031 -2.9751611 0
13.17209 -0.43804536 0
-2.9672853 10.212615 0
5.5574549 8.9635077 0
5.9863042 -2.1705127 0
5.127885 9.8773422 0
5.5108653 -13.685071 0
-10.898398 13.412148 0
-4.9286811 10.934399 0
-2.284899 10.289796 0
7.9152496 -6.5258364 0
4.097257 -8.5459052 0
0.10042601 -13.988805 0
-5.5700704 -5.1623081 0
7.9609394 -11.830031 0
-4.6984198 -16.489802 0
3.9426081 6.3032492 0
2.55915 -6.9784244 0
-8.8057437 -9.7716878 0
-9.7749924 -10.850895 0
4.0750832 -9.208195 0
-11.759793 -7.8408395 0
5.1829817 2.5948099 0
3.5145577 -6.4141659 0
-10.6803 0.087561211 0
-2.1112034 -1.1738229 0
7.0686096 4.5669181 0
0.88449391 -7.1013276 0
-3.5193704 0.13857445 0
7.637 12.624197 0
-10.091575 -9.5522741 0
-7.8402788 10.760203 0
2.7146615 11.935728 0
2.6746173 -2.1186744 0
6.2745391 8.8214542 0
-3.8489656 7.0037345 0
11.744197 -3.8010096 0
-7.1987255 -4.7799155 0
6.0200643 -18.671407 0
7.8507014 -19.84644 0
-0.914019 3.6512569 0
-1.5030733 -12.227862 0
0.78648987 -13.62738 0
4.8634056 8.3058169 0
3.6600032 -8.0933157 0
-12.493592 1.1413822 0
1.2775463 -0.82616814 0
0.040350666 10.098407 0
-12.843432 -1.5065312 0
11.016532 7.957697 0
-6.960994 -7.2992647 0
-2.4733804 -5.9534753 0
5.354266 -13.80827 0
-3.6213186 3.7477743 0
4.1266163 10.635634 0
12.886947 -2.9361585 0
3.9010049 3.7708783 0
-6.3062906 -2.5134612 0
6.3023322 7.0177237 0
6.8556613 12.877213 0
2.7106517 -1.0508934 0
-10.110071 -14.998295 0
3.6832697 -18.312678 0
0.55041633 4.6225829 0
-9.3817811 0.5178187 0
-3.2455062 -8.9244804 0
-2.4444413 -0.66558783 0
4.9819149 2.8341638 0
-0.2086978 6.5262791 0
4.2261639 -14.459052 0
-2.8248749 -2.7481421 0
-4.2850437 -1.4434896 0
-3.9685351 -8.2733586 0
9.0084091 -2.908173 0
5.3533902 7.3133331 0
-9.8195282 -1.52524 0
-3.56509 -7.0994631 0
-11.636706 6.0405285 0
0.91335135 5.4389347 0
-4.4484885 7.3148662 0
-0.65946788 -3.6175377 0
-5.8063023 12.470038 0
11.543786 5.063964 0
5.9109885 7.8321858 0
-5.9267388 10.851801 0
-9.3708792 -11.170583 0
-1.5126642 -9.2841752 0
-2.2714672 -6.0283471 0
9.3487436 -1.7867817 0
4.9605165 0.065659685 0
-0.15028942 -1.5553035 0
-0.55499846 10.433684 0
-6.3483756 -6.6846556 0
-1.9422916 -4.0763545 0
-5.490575 20.433847 0
1.9043696 9.0616359 0
-9.8472146 -6.1657482 0
8.3538592 1.3329692 0
0.012199375 6.3239219 0
6.0695823 7.3837089 0
-6.8266833 -4.4385551 0
1.8499325 -0.88366666 0
-12.588084 4.4204115 0
-7.2499751 3.6657846 0
2.1971995 11.564475 0
-4.9366299 2.404339 0
-14.314261 -4.5280517 0
-4.517172 0.76801289 0
-9.1813738 2.5402958 0
0.22035918 0.94012018 0
0.8313356 -12.772029 0
12.09308 -2.765635 0
-10.965095 -9.0271584 0
-6.6877534 6.17246 0
7.0410508 3.1040231 0
-9.5820888 0.51433943 0
-2.3358357 -2.8852676 0
-5.7187465 -9.3926344 0
-5.5321121 -10.898369 0
5.5957963 -12.331744 0
3.0929603 7.2156922 0
1.3519934 2.7269446 0
-8.3360409 2.0017337 0
-7.2719159 -0.44107776 0
-2.6888472 -6.4528649 0
6.6476461 0.17760235 0
6.7780431 -8.1216268 0
-6.0453074 -0.047201514 0
0.097473541 4.8456651 0
13.507954 8.0448058 0
-1.9600181 2.3750594 0
-1.8315783 7.7965792 0
-2.4625039 9.8896494 0
-4.8673141 24.852045 0
3.378716 9.8880368 0
-0.83964644 -7.6406615 0
3.0811157 -0.90110945 0
-4.3157966 2.8080105 0
1.1965323 8.8099243 0
-11.513309 -6.9163247 0
-6.2913217 -6.3075786 0
-5.9364611 6.7273497 0
11.126634 1.7391308 0
8.6943782 0.40946393 0
-10.421388 -1.9160698 0
13.57338 -10.655582 0
-10.424366 2.4693357 0
-4.1202784 0.76398849 0
-4.3817719 2.2797524 0
-5.2305928 -0.15353592 0
11.979384 -7.2830737 0
-6.2906993 11.59936 0
-2.9601632 4.8313214 0
8.8655513 1.0115614 0
15.696906 5.954679 0
-0.55411655 5.0716221 0
-8.7511988 -4.8221708 0
-6.3292573 2.0312704 0
-4.5674532 9.5566067 0
4.6986582 19.014362 0
0.34312228 -14.634542 0
3.7169491 -4.5338287 0
7.3414978 -4.8332763 0
0.90436972 -6.9775869 0
-9.4619755 3.6428131 0
2.3991375 -11.61809 0
11.766958 2.4973979 0
-8.884559 -6.6424513 0
-8.4611234 -2.1269439 0
-1.6765565 -6.4086958 0
6.1491284 -4.8340007 0
6.8972044 2.3934336 0
-12.883915 1.7931363 0
-0.62020276 4.7520018 0
4.5445103 2.9281257 0
11.045374 -1.9661897 0
-5.0783064 19.565028 0
-6.7924184 6.7860892 0
13.771653 -4.5242884 0
-4.5940181 0.24765394 0
-8.7065067 11.507617 0
-6.476819 -2.0249105 0
-6.4279019 4.6669819 0
0.92486146 11.821772 0
-2.9844782 14.123598 0
1.0721604 -13.95876 0
-3.0775078 -22.684649 0
0.3597837 -19.889665 0
7.0428256 -2.8680775 0
4.3777043 -8.1587007 0
-7.5194969 -4.2637275 0
-1.9140255 -2.3955606 0
-10.966641 -6.1833993 0
10.066382 7.4970653 0
-2.6321967 -10.483751 0
3.571636 18.304388 0
4.4737696 1.8136554 0
4.1553321 -0.39292525 0
-7.5546105 -8.4247623 0
-3.0907622 -11.885069 0
-9.1456579 2.8183351 0
-7.1220826 -11.564765 0
3.2372001 -4.554744 0
5.5010049 -2.5739553 0
-8.2356596 1.9198246 0
-0.34798626 5.8049535 0
-1.9578361 3.7395417 0
6.1392315 2.9802385 0
-4.0322523 9.2131658 0
-1.222474 11.29182 0
-4.5695982 -3.8446791 0
4.6832567 -0.88142005 0
-10.520666 -1.2622815 0
-17.99158 1.1802827 0
-6.6460885 -3.6536021 0
3.2802093 1.8720802 0
-8.9034962 -5.2089995 0
-3.1554005 -0.47686846 0
-5.7813468 -17.278198 0
1.1468371 14.658801 0
-9.6895444 -3.9989836 0
-0.98858255 7.2035824 0
1.1706592 3.1429324 0
-11.342621 6.5976088 0
-13.036113 -9.4035886 0
-5.9092953 -11.614719 0
-0.26220651 -2.6859856 0
-4.6472405 -7.0309967 0
-8.9146983 -11.733615 0
4.8233575 0.52142103 0
-6.0066507 3.6571562 0
-1.0590221 4.2078991 0
-0.28272378 12.871829 0
6.1812925 -4.0903446 0
-9.8911218 3.2380415 0
8.061876 -6.6803569 0
-3.5697018 3.7070633 0
-10.376292 -10.76591 0
0.78759126 -2.9093514 0
-8.0312281 3.0170664 0
6.3389287 -4.3569743 0
1.5968086 -1.2823641 0
1.0396598 -6.9855525 0
-2.5562508 -3.8202524 0
-5.4009671 6.148816 0
-5.6358523 11.796166 0
-0.6500976 -2.3633062 0
0.32294217 -13.551173 0
-0.46933816 8.4337447 0
0.46965786 3.71586 0
1.1902546 -3.4206826 0
-2.1858598 15.069026 0
1.2202203 8.4417073 0
4.8137515 -8.8943233 0
-6.9586508 4.1438417 0
-14.330818 10.589747 0
-8.6413091 -0.19232612 0
-3.6881028 -1.4942658 0
-9.3952061 10.616259 0
-5.6034952 3.1227265 0
-13.377521 -11.188005 0
1.8130813 2.7196741 0
-8.4211251 2.762587 0
-7.3480665 2.1551863 0
3.4887841 -3.3336767 0
5.1233531 2.3702078 0
-7.3234261 1.4094395 0
-3.6508441 2.6592019 0
-7.6098163 0.63945458 0
-2.1799883 -5.1425541 0
-5.5710749 4.3643136 0
6.1210402 26.519926 0
-7.7576544 10.10559 0
-5.9752375 4.9416577 0
-12.422534 5.2346561 0
-9.98175 5.7459099 0
-0.15774487 0.9031924 0
-0.21575046 -2.1559564 0
0.4070897 0.32628844 0
-0.0075116909 -0.22659203 0
1.1851153 2.2524359 0
-4.0082858 5.530037 0
2.3205633 12.015196 0
-10.84418 -1.503078 0
-6.2142091 5.3732179 0
-5.5687123 -8.7757745 0
0.99156882 4.0116746 0
-5.3196415 -8.7441038 0
6.966638 -0.97294859 0
-2.4887509 6.8055605 0
-2.7542137 -3.7063627 0
0.095979742 -6.8300837 0
11.021451 -8.935941 0
-5.8769533 1.0668422 0
2.9822878 -0.21361781 0
-4.5792951 3.1476164 0
11.643867 9.8718618 0
6.7399507 -2.8337746 0
5.8593513 5.2531694 0
6.3738303 0.22972279 0
-3.9945078 -1.072647 0
3.9524694 -5.3963437 0
0.5568421 6.7552675 0
-1.7841766 -3.1215341 0
-2.9652819 3.2114189 0
-8.8658986 6.435218 0
0.54380319 -5.9099963 0
1.7148084 7.4422667 0
-6.4696222 -1.3532574 0
-9.3848771 -0.45343902 0
-10.365969 -1.8787691 0
2.8210385 -8.0408849 0
-0.34756781 2.123872 0
-8.5073436 -7.9186221 0
-3.9687128 6.7954945 0
3.5836505 -6.7851428 0
-0.080588141 -9.3227365 0
7.8664021 -1.5916411 0
-2.4927738 6.957513 0
5.552502 -18.462053 0
4.5118477 -4.0562382 0
-14.324672 8.7422342 0
1.2805322 -8.7855549 0
-3.3446467 -2.1594626 0
2.6200569 3.3997059 0
-2.3259215 5.2998971 0
-6.6496181 3.6471207 0
-12.812207 -0.81122887 0
-3.0598259 4.0764534 0
-9.2618624 -0.64983013 0
-12.045163 -2.7642626 0
-9.8447313 -0.080512632 0
-2.6910487 3.879063 0
-11.533705 1.705539 0
-2.241365 9.6858712 0
-1.6184868 -4.7962531 0
4.8061687 -4.1067308 0
-10.025 0.016627142 0
-6.2618824 -3.2501146 0
-1.0632895 5.0381361 0
0.39373355 -2.8712376 0
-5.8605086 -1.9381286 0
-3.6447216 -4.1118566 0
4.8106755 1.4316041 0
0.51327179 9.2135089 0
-8.4810781 10.95759 0
24.229699 -11.363738 0
1.2469927 10.649519 0
2.6239534 10.069918 0
-14.054315 -10.366877 0
-3.1321265 -1.5030178 0
7.9655881 -1.4295828 0
-7.5791504 10.053159 0
-1.9066934 -5.6201574 0
-1.9390969 -8.1731149 0
-2.3934332 8.8091175 0
0.20195051 -5.2394425 0
-5.8972688 0.29565487 0
-10.004567 0.011069782 0
4.5071223 -1.6394488 0
-10.024771 0.027970593 0
-10.033516 0.0046661478 0
-10.002827 0.0019785552 0
-9.4448499 0.71008248 0
-10.028753 0.010952746 0
-9.9936769 -0.096194922 0
-8.5918785 -9.0627902 0
-9.0446166 -3.6081675 0
-7.4364454 3.7562419 0
-10.062165 0.6911686 0
-7.26316 -1.8797285 0
-8.7929456 0.18793654 0
4.1587186 0.030422183 0
9.4119011 5.0309503 0
-13.577401 1.8847213 0
-10.132481 0.21124201 0
0.1852533 -16.194813 0
1.4220982 -2.9514157 0
-2.9312068 -3.2195159 0
1.6417998 20.830864 0
-9.9670652 -0.035903177 0
-11.892191 0.96315794 0
3.1129292 3.5149311 0
-10.028305 0.048963908 0
-9.7364439 1.1323182 0
-9.9993999 0.014554071 0
-10.00001 -0.00019996732 0
-10.000008 8.9791762e-05 0
-10.001834 0.063514257 0
-9.9960021 -0.0036185481 0
-8.0817655 -4.079874 0
-6.5239091 1.2830173 0
3.5439121 8.2775258 0
-10.042871 0.020000846 0
-9.9280586 -0.076902662 0
-7.5918089 6.2592241 0
-3.1946303 10.126308 0
-4.3532201 -2.5984469 0
-11.474162 -3.8744536 0
-5.3020095 11.956222 0
-7.4420307 -0.699261 0
-1.2935194 16.720244 0
-10.004575 0.015438417 0
-10.077841 -0.12956314 0
6.7752107 12.594287 0
-10.618871 -0.34719342 0
-10.823107 1.1628717 0
-9.9912436 -0.0064320426 0
-9.9894842 0.045066528 0
-10.009873 -0.056324084 0
-9.9989668 0.014545737 0
-9.9997042 -0.00017976587 0
-9.9997079 5.2593987e-05 0
-10.000505 0.0024086758 0
6.6190183 -13.515474 0
-0.78898101 4.364718 0
-10.000362 0.0004028177 0
-10.010769 -0.8173518 0
-10.005588 0.0073512436 0
2.2106996 -4.8667686 0
-9.5704031 -0.57150479 0
-9.9949029 -0.20023913 0
-8.2344511 -5.5621146 0
-9.1054724 3.6589031 0
14.091897 -9.4298795 0
1.3968706 4.0408388 0
0.10527141 -0.27602668 0
-11.993721 2.2863833 0
-10.000814 -0.0056129713 0
-2.7868772 -5.8814397 0
-10.016158 -0.010950865 0
-10.00412 0.0055724195 0
-4.6200087 3.7234259 0
-10.223919 -1.232368 0
-10.000481 -0.017826362 0
-10.012981 0.013737601 0
-10.014447 -0.00015770343 0
-10.014438 4.4465753e-05 0
-10.01834 0.0057475189 0
-10.01809 -0.0034122907 0
-10.014992 8.5130139e-05 0
-10.014467 0.00053169327 0
-9.8683718 -1.4652393 0
-10.005584 0.022061856 0
-10.057057 0.016500137 0
-1.5582861 -4.5141485 0
-10.101039 -16.248933 0
6.1930032 -0.16859679 0
2.1556838 -3.0504865 0
-10.054648 -0.26454307 0
-10.001807 0.036358397 0
-10.017765 -0.012924555 0
-10.174109 0.064782758 0
-10.015305 -0.0012443612 0
-10.014717 3.7714542e-05 0
-10.014481 3.2424791e-05 0
-10.014475 8.5476472e-05 0
-10.015194 0.00017696668 0
-10.016571 0.00091370578 0
-10.01375 -0.013812166 0
9.3664052 -3.8409628 0
7.9357291 0.88428838 0
10.860926 -18.38681 0
6.9648195 -11.324548 0
4.0023489 1.5124732 0
-0.13085454 -5.2923628 0
-3.538975 -2.0264772 0
6.9554119 -2.2956245 0
-2.7226214 -1.7689846 0
7.7371116 -0.48720109 0
-6.4569526 -4.8122584 0
0.28417298 4.5554086 0
2.3089292 -2.1185524 0
2.7475036 -1.9350571 0
7.0101036 7.3959012 0
-6.4017579 -2.7076678 0
2.18597 1.5496819 0
15.006841 0.22919361 0
-6.1442266 14.928548 0
2.4711794 13.283186 0
-0.64228243 13.580321 0
3.3224951 8.394935 0
-1.6719264 7.3981341 0
-2.6282259 22.954801 0
-4.492222 10.092551 0
-1.2981516 -13.92563 0
-1.6395344 -0.27045094 0
7.1710056 -4.1920277 0
-2.1055325 -41.174596 0
5.2238295 -9.5959601 0
-2.4099435 -4.8798504 0
7.9319273 -5.461775 0
3.6871754 -13.584919 0
-5.9259153 3.9260598 0
-9.5544149 7.9798406 0
0.64256612 -1.5923204 0
-3.4107026 -14.40406 0
4.8843013 -1.2797685 0
17.426094 9.0437812 0
9.3757334 9.399538 0
-0.37141604 5.7513985 0
11.348198 12.153133 0
2.6374332 0.38738068 0
-10.63829 -2.9260637 0
-7.4312132 12.481324 0
-2.9899136 11.904668 0
-7.0690939 4.6366355 0
-5.6992937 -4.6709537 0
-0.33006926 2.8949689 0
-0.11997557 9.3396366 0
8.2354473 -6.0208266 0
-6.9436087 -2.7502922 0
2.2954882 -7.3191812 0
-4.7838792 -8.2831677 0
7.5761134 -2.878674 0
-0.65883644 5.7508561 0
8.0642408 -9.3181029 0
1.7865065 5.8477378 0
5.1538826 3.256726 0
-5.4376597 5.3259584 0
8.658921 -11.858199 0
6.8402513 2.7523536 0
-0.051698252 3.2761803 0
-3.1228646 -1.3848035 0
11.786484 0.37407488 0
-0.47476172 -8.7178688 0
3.4485384 11.177796 0
-8.2806709 -0.83671216 0
12.187198 2.2137391 0
7.089934 9.1271032 0
4.0516864 10.05907 0
-1.9631763 11.61686 0
-0.47651814 10.15761 0
-6.552505 10.530925 0
-4.8690913 3.4327965 0
-6.5485527 -6.7367888 0
-1.9650873 -10.559637 0
1.0069149 -3.0184676 0
-27.944314 -12.984453 0
1.2738587 -1.0298228 0
-1.0462859 -1.1538978 0
-3.2090493 -7.7804936 0
8.4175834 -9.7140827 0
-3.2935705 -4.7070815 0
-3.2011727 -10.099626 0
3.3259784 -3.429223 0
2.6495161 -2.8594869 0
-2.3274095 8.5761384 0
7.5811277 6.3648397 0
8.3035687 0.41665018 0
-1.8304634 0.59968073 0
-13.773152 -16.260114 0
-3.3852034 -3.0690303 0
23.624642 7.4319157 0
-9.1072871 17.155502 0
-7.5779207 9.309662 0
-4.5750392 8.0992412 0
-3.3075304 -5.2016371 0
-1.6666685 -12.570614 0
7.0375798 8.2928335 0
8.3409197 -8.692005 0
11.061499 -13.578629 0
-2.7096101 7.5406064 0
18.120434 -15.206463 0
7.1103555 -8.3233609 0
2.0286908 -3.1970348 0
-4.4395051 -6.3080799 0
-7.2135541 -3.0408745 0
6.5734553 -2.9351167 0
22.127231 16.614891 0
2.5682765 -2.2847666 0
-10.808695 1.1437613 0
11.090206 -5.5540947 0
13.275303 11.370701 0
-60.93195 -201.01258 0
10.588081 9.6648009 0
-7.7537031 4.8250033 0
0.44290239 4.596617 0
3.5067119 4.5895563 0
8.944696 10.737642 0
0.48889673 11.328218 0
1.3584276 23.699416 0
-0.22975036 16.782486 0