# vtk DataFile Version 4.0
hesp visualization file
ASCII
DATASET UNSTRUCTURED_GRID
POINTS 1250 double
30.623668 1.1986782 4
30.586992 2.221312 4
30.543596 3.3634257 4
30.543594 4.4856822 4
30.543594 5.6081628 4
30.543594 6.730615 4
30.543594 7.8530859 4
30.543594 8.9755375 4
30.543594 10.098004 4
30.543594 11.220472 4
30.543594 12.34295 4
30.543592 13.465293 4
30.543592 14.587767 4
30.543591 15.710183 4
30.543591 16.832648 4
30.543593 17.956431 4
30.543593 19.078887 4
30.543593 20.201368 4
30.543593 21.323832 4
30.543592 22.445985 4
30.543592 23.568453 4
30.54359 24.690909 4
30.543588 25.813312 4
30.543589 26.93572 4
30.543668 28.055401 4
30.863909 1.0471564 4
30.855057 2.2609177 4
30.783058 3.3699353 4
30.783058 4.4920178 4
30.783058 5.6144689 4
30.783058 6.7369348 4
30.783058 7.8593949 4
30.783058 8.9818593 4
30.783058 10.10432 4
30.783058 11.226782 4
30.783058 12.349241 4
30.783057 13.471731 4
30.783057 14.59419 4
30.783057 15.716664 4
30.783057 16.839125 4
30.783061 17.961234 4
30.783061 19.083696 4
30.783061 20.206154 4
30.783061 21.328615 4
30.78306 22.451169 4
30.78306 23.573631 4
30.78306 24.696094 4
30.78306 25.818569 4
30.78306 26.941316 4
30.783131 28.074548 4
31.927738 1.2474508 4
31.90785 2.2351504 4
31.870208 3.3653982 4
31.870209 4.4881864 4
31.870208 5.6106567 4
31.870208 6.7331162 4
31.870208 7.8555795 4
31.870208 8.97804 4
31.870208 10.100503 4
31.870208 11.222965 4
31.870208 12.345429 4
31.870207 13.467873 4
31.870205 14.590336 4
31.870208 15.712791 4
31.870205 16.835253 4
31.870206 17.957943 4
31.870206 19.080405 4
31.870206 20.20287 4
31.870206 21.325332 4
31.870205 22.447732 4
31.870205 23.570195 4
31.870205 24.692657 4
31.870205 25.815109 4
31.870204 26.93731 4
31.870104 28.04926 4
32.760252 1.0305108 4
32.200669 2.2490949 4
32.109716 3.367734 4
32.109717 4.4901104 4
32.109717 5.6125713 4
32.109717 6.7350334 4
32.109717 7.8574954 4
32.109717 8.9799575 4
32.109717 10.10242 4
32.109717 11.224882 4
32.109717 12.347344 4
32.109717 13.469806 4
32.109717 14.592268 4
32.109717 15.71473 4
32.109717 16.837192 4
32.109717 17.959663 4
32.109717 19.082125 4
32.109717 20.204588 4
32.109717 21.32705 4
32.109717 22.449512 4
32.109717 23.571974 4
32.109717 24.694436 4
32.109717 25.816898 4
32.109717 26.939436 4
32.109662 28.064364 4
33.232774 1.131508 4
33.232688 2.2434113 4
33.196539 3.3671545 4
33.196529 4.4896762 4
33.196529 5.612139 4
33.196529 6.7346011 4
33.196529 7.8570631 4
33.196529 8.9795252 4
33.196529 10.101987 4
33.196529 11.224449 4
33.196529 12.346911 4
33.196529 13.469373 4
33.196529 14.591835 4
33.196529 15.714297 4
33.196529 16.83676 4
33.196528 17.959214 4
33.196528 19.081676 4
33.196528 20.204138 4
33.196528 21.3266 4
33.196528 22.449062 4
33.196528 23.571524 4
33.196528 24.693986 4
33.196528 25.816448 4
33.196528 26.938854 4
33.196527 28.058848 4
33.663879 1.1189406 4
33.662507 2.2456315 4
33.436292 3.3673859 4
33.436291 4.4898493 4
33.436291 5.6123113 4
33.436291 6.7347734 4
33.436291 7.8572354 4
33.436291 8.9796975 4
33.436291 10.10216 4
33.436291 11.224622 4
33.436291 12.347084 4
33.436291 13.469546 4
33.436291 14.592008 4
33.436291 15.71447 4
33.436291 16.836932 4
33.436291 17.959394 4
33.436291 19.081856 4
33.436291 20.204318 4
33.436291 21.32678 4
33.436291 22.449242 4
33.436291 23.571704 4
33.436291 24.694166 4
33.436291 25.816628 4
33.436291 26.939088 4
33.43629 28.061083 4
34.557233 1.1229428 4
34.557233 2.2449271 4
34.557234 3.3673861 4
34.557234 4.4898482 4
34.557234 5.6123102 4
34.557234 6.7347723 4
34.557234 7.8572343 4
34.557234 8.9796964 4
34.557234 10.102158 4
34.557234 11.22462 4
34.557234 12.347083 4
34.557234 13.469545 4
34.557234 14.592007 4
34.557234 15.714469 4
34.557234 16.836931 4
34.557234 17.959393 4
34.557234 19.081855 4
34.557234 20.204317 4
34.557234 21.326779 4
34.557234 22.449241 4
34.557234 23.571703 4
34.557234 24.694165 4
34.557234 25.816627 4
34.557234 26.939086 4
34.557234 28.061071 4
35.679696 1.1229427 4
35.679696 2.2449272 4
35.679696 3.3673861 4
35.679696 4.4898482 4
35.679696 5.6123102 4
35.679696 6.7347723 4
35.679696 7.8572343 4
35.679696 8.9796964 4
35.679696 10.102158 4
35.679696 11.22462 4
35.679696 12.347083 4
35.679696 13.469545 4
35.679696 14.592007 4
35.679696 15.714469 4
35.679696 16.836931 4
35.679696 17.959393 4
35.679696 19.081855 4
35.679696 20.204317 4
35.679696 21.326779 4
35.679696 22.449241 4
35.679696 23.571703 4
35.679696 24.694165 4
35.679696 25.816627 4
35.679696 26.939086 4
35.679696 28.061071 4
36.802158 1.1229427 4
36.802158 2.2449272 4
36.802158 3.3673861 4
36.802158 4.4898482 4
36.802158 5.6123102 4
36.802158 6.7347723 4
36.802158 7.8572343 4
36.802158 8.9796964 4
36.802158 10.102158 4
36.802158 11.22462 4
36.802158 12.347083 4
36.802158 13.469545 4
36.802158 14.592007 4
36.802158 15.714469 4
36.802158 16.836931 4
36.802158 17.959393 4
36.802158 19.081855 4
36.802158 20.204317 4
36.802158 21.326779 4
36.802158 22.449241 4
36.802158 23.571703 4
36.802158 24.694165 4
36.802158 25.816627 4
36.802158 26.939086 4
36.802158 28.061071 4
37.92462 1.1229427 4
37.92462 2.2449272 4
37.92462 3.3673861 4
37.92462 4.4898482 4
37.92462 5.6123102 4
37.92462 6.7347723 4
37.92462 7.8572343 4
37.92462 8.9796964 4
37.92462 10.102158 4
37.92462 11.22462 4
37.92462 12.347083 4
37.92462 13.469545 4
37.92462 14.592007 4
37.92462 15.714469 4
37.92462 16.836931 4
37.92462 17.959393 4
37.92462 19.081855 4
37.92462 20.204317 4
37.92462 21.326779 4
37.92462 22.449241 4
37.92462 23.571703 4
37.92462 24.694165 4
37.92462 25.816627 4
37.92462 26.939086 4
37.92462 28.061071 4
39.047083 1.1229427 4
39.047083 2.2449272 4
39.047083 3.3673861 4
39.047083 4.4898482 4
39.047083 5.6123102 4
39.047083 6.7347723 4
39.047083 7.8572343 4
39.047083 8.9796964 4
39.047083 10.102158 4
39.047083 11.22462 4
39.047083 12.347083 4
39.047083 13.469545 4
39.047083 14.592007 4
39.047083 15.714469 4
39.047083 16.836931 4
39.047083 17.959393 4
39.047083 19.081855 4
39.047083 20.204317 4
39.047083 21.326779 4
39.047083 22.449241 4
39.047083 23.571703 4
39.047083 24.694165 4
39.047083 25.816627 4
39.047083 26.939086 4
39.047083 28.061071 4
40.169545 1.1229427 4
40.169545 2.2449272 4
40.169545 3.3673861 4
40.169545 4.4898482 4
40.169545 5.6123102 4
40.169545 6.7347723 4
40.169545 7.8572343 4
40.169545 8.9796964 4
40.169545 10.102158 4
40.169545 11.22462 4
40.169545 12.347083 4
40.169545 13.469545 4
40.169545 14.592007 4
40.169545 15.714469 4
40.169545 16.836931 4
40.169545 17.959393 4
40.169545 19.081855 4
40.169545 20.204317 4
40.169545 21.326779 4
40.169545 22.449241 4
40.169545 23.571703 4
40.169545 24.694165 4
40.169545 25.816627 4
40.169545 26.939086 4
40.169545 28.061071 4
41.292007 1.1229427 4
41.292007 2.2449272 4
41.292007 3.3673861 4
41.292007 4.4898482 4
41.292007 5.6123102 4
41.292007 6.7347723 4
41.292007 7.8572343 4
41.292007 8.9796964 4
41.292007 10.102158 4
41.292007 11.22462 4
41.292007 12.347083 4
41.292007 13.469545 4
41.292007 14.592007 4
41.292007 15.714469 4
41.292007 16.836931 4
41.292007 17.959393 4
41.292007 19.081855 4
41.292007 20.204317 4
41.292007 21.326779 4
41.292007 22.449241 4
41.292007 23.571703 4
41.292007 24.694165 4
41.292007 25.816627 4
41.292007 26.939086 4
41.292007 28.061071 4
42.414469 1.1229427 4
42.414469 2.2449272 4
42.414469 3.3673861 4
42.414469 4.4898482 4
42.414469 5.6123102 4
42.414469 6.7347723 4
42.414469 7.8572343 4
42.414469 8.9796964 4
42.414469 10.102158 4
42.414469 11.22462 4
42.414469 12.347083 4
42.414469 13.469545 4
42.414469 14.592007 4
42.414469 15.714469 4
42.414469 16.836931 4
42.414469 17.959393 4
42.414469 19.081855 4
42.414469 20.204317 4
42.414469 21.326779 4
42.414469 22.449241 4
42.414469 23.571703 4
42.414469 24.694165 4
42.414469 25.816627 4
42.414469 26.939086 4
42.414469 28.061071 4
43.536931 1.1229427 4
43.536931 2.2449272 4
43.536931 3.3673861 4
43.536931 4.4898482 4
43.536931 5.6123102 4
43.536931 6.7347723 4
43.536931 7.8572343 4
43.536931 8.9796964 4
43.536931 10.102158 4
43.536931 11.22462 4
43.536931 12.347083 4
43.536931 13.469545 4
43.536931 14.592007 4
43.536931 15.714469 4
43.536931 16.836931 4
43.536931 17.959393 4
43.536931 19.081855 4
43.536931 20.204317 4
43.536931 21.326779 4
43.536931 22.449241 4
43.536931 23.571703 4
43.536931 24.694165 4
43.536931 25.816627 4
43.536931 26.939086 4
43.536931 28.061071 4
44.659393 1.1229427 4
44.659393 2.2449272 4
44.659393 3.3673861 4
44.659393 4.4898482 4
44.659393 5.6123102 4
44.659393 6.7347723 4
44.659393 7.8572343 4
44.659393 8.9796964 4
44.659393 10.102158 4
44.659393 11.22462 4
44.659393 12.347083 4
44.659393 13.469545 4
44.659393 14.592007 4
44.659393 15.714469 4
44.659393 16.836931 4
44.659393 17.959393 4
44.659393 19.081855 4
44.659393 20.204317 4
44.659393 21.326779 4
44.659393 22.449241 4
44.659393 23.571703 4
44.659393 24.694165 4
44.659393 25.816627 4
44.659393 26.939086 4
44.659393 28.061071 4
45.781855 1.1229427 4
45.781855 2.2449272 4
45.781855 3.3673861 4
45.781855 4.4898482 4
45.781855 5.6123102 4
45.781855 6.7347723 4
45.781855 7.8572343 4
45.781855 8.9796964 4
45.781855 10.102158 4
45.781855 11.22462 4
45.781855 12.347083 4
45.781855 13.469545 4
45.781855 14.592007 4
45.781855 15.714469 4
45.781855 16.836931 4
45.781855 17.959393 4
45.781855 19.081855 4
45.781855 20.204317 4
45.781855 21.326779 4
45.781855 22.449241 4
45.781855 23.571703 4
45.781855 24.694165 4
45.781855 25.816627 4
45.781855 26.939086 4
45.781855 28.061071 4
46.904317 1.1229427 4
46.904317 2.2449272 4
46.904317 3.3673861 4
46.904317 4.4898482 4
46.904317 5.6123102 4
46.904317 6.7347723 4
46.904317 7.8572343 4
46.904317 8.9796964 4
46.904317 10.102158 4
46.904317 11.22462 4
46.904317 12.347083 4
46.904317 13.469545 4
46.904317 14.592007 4
46.904317 15.714469 4
46.904317 16.836931 4
46.904317 17.959393 4
46.904317 19.081855 4
46.904317 20.204317 4
46.904317 21.326779 4
46.904317 22.449241 4
46.904317 23.571703 4
46.904317 24.694165 4
46.904317 25.816627 4
46.904317 26.939086 4
46.904317 28.061071 4
48.026779 1.1229427 4
48.026779 2.2449272 4
48.026779 3.3673861 4
[...]
POINT_DATA 1250
SCALARS m double
LOOKUP_TABLE default
1
1
1
1
1
1
1
1
1
1
1
1
1
1
1
1
1
1
1
1
1
1
1
1
1
1
1
1
1
1
1
1
1
1
1
1
1
1
1
1
1
1
1
1
1
1
1
1
1
1
1
1
1
1
1
1
1
1
1
1
1
1
1
1
1
1
1
1
1
1
1
1
1
1
1
1
1
1
1
1
1
1
1
1
1
1
1
1
1
1
1
1
1
1
1
1
1
1
1
1
1
1
1
1
1
1
1
1
1
1
1
1
1
1
1
1
1
1
1
1
1
1
1
1
1
1
1
1
1
1
1
1
1
1
1
1
1
1
1
1
1
1
1
1
1
1
1
1
1
1
1
1
1
1
1
1
1
1
1
1
1
1
1
1
1
1
1
1
1
1
1
1
1
1
1
1
1
1
1
1
1
1
1
1
1
1
1
1
1
1
1
1
1
1
1
1
1
1
1
1
1
1
1
1
1
1
1
1
1
1
1
1
1
1
1
1
1
1
1
1
1
1
1
1
1
1
1
1
1
1
1
1
1
1
1
1
1
1
1
1
1
1
1
1
1
1
1
1
1
1
1
1
1
1
1
1
1
1
1
1
1
1
1
1
1
1
1
1
1
1
1
1
1
1
1
1
1
1
1
1
1
1
1
1
1
1
1
1
1
1
1
1
1
1
1
1
1
1
1
1
1
1
1
1
1
1
1
1
1
1
1
1
1
1
1
1
1
1
1
1
1
1
1
1
1
1
1
1
1
1
1
1
1
1
1
1
1
1
1
1
1
1
1
1
1
1
1
1
1
1
1
1
1
1
1
1
1
1
1
1
1
1
1
1
1
1
1
1
1
1
1
1
1
1
1
1
1
1
1
1
1
1
1
1
1
1
1
1
1
1
1
1
1
1
1
1
1
1
1
1
1
1
1
1
1
1
1
1
1
1
1
1
1
1
1
1
1
1
1
1
1
1
1
1
1
1
1
1
1
1
1
1
1
1
1
1
1
1
1
1
1
1
1
1
1
1
1
1
1
1
1
1
1
1
1
1
1
1
1
1
1
1
1
1
1
1
1
1
1
1
1
1
1
1
1
1
1
1
1
1
1
1
1
1
1
1
1
1
1
1
1
1
1
1
1
1
1
1
1
1
1
1
1
1
1
1
1
1
1
1
1
1
1
1
1
1
1
1
1
1
1
1
1
1
1
1
1
1
1
1
1
1
1
1
1
1
1
1
1
1
1
1
1
1
1
1
1
1
1
1
1
1
1
1
1
1
1
1
1
1
1
1
1
1
1
1
1
1
1
1
1
1
1
1
1
1
1
1
1
1
1
1
1
1
1
1
1
1
1
1
1
1
1
1
1
1
1
1
1
1
1
1
1
1
1
1
1
1
1
1
1
1
1
1
1
1
1
1
1
1
1
1
1
1
1
1
1
1
1
1
1
1
1
1
1
1
1
1
1
1
1
1
1
1
1
1
1
1
1
1
1
1
1
1
1
1
1
1
1
1
1
1
1
1
1
1
1
1
1
1
1
1
1
1
1
1
1
1
1
1
1
1
1
1
1
1
1
1
1
1
1
1
1
1
1
1
1
1
1
1
1
1
1
1
1
1
1
1
1
1
1
1
1
1
1
1
1
1
1
1
1
1
1
1
1
1
1
1
1
1
1
1
1
1
1
1
1
1
1
1
1
1
1
1
1
1
1
1
1
1
1
1
1
1
1
1
1
1
1
1
1
1
1
1
1
1
1
1
1
1
1
1
1
1
1
1
1
1
1
1
1
1
1
1
1
1
1
1
1
1
1
1
1
1
1
1
1
1
1
1
1
1
1
1
1
1
1
1
1
1
1
1
1
1
1
1
1
1
1
1
1
1
1
1
1
1
1
1
1
1
1
1
1
1
1
1
1
1
1
1
1
1
1
1
1
1
1
1
1
1
1
1
1
1
1
1
1
1
1
1
1
1
1
1
1
1
1
1
1
1
1
1
1
1
1
1
1
1
1
1
1
1
1
1
1
1
1
1
1
1
1
1
1
1
1
1
1
1
1
1
1
1
1
1
1
1
1
1
1
1
1
1
1
1
1
1
1
1
1
1
1
1
1
1
1
1
1
1
1
1
1
1
1
1
1
1
1
1
1
1
1
1
1
1
1
1
1
1
1
1
1
1
1
1
1
1
1
1
1
1
1
1
1
1
1
1
1
1
1
1
1
1
1
1
1
1
1
1
1
1
1
1
1
1
1
1
1
1
1
1
1
1
1
1
1
1
1
1
1
1
1
1
1
1
1
1
1
1
1
1
1
1
1
1
1
1
1
1
1
1
1
1
1
1
1
1
1
1
1
1
1
1
1
1
1
1
1
1
1
1
1
1
1
1
1
1
1
1
1
1
1
1
1
1
1
1
1
1
1
1
1
1
1
1
1
1
1
1
1
1
1
1
1
1
1
1
1
1
1
1
1
1
1
1
1
1
1
1
1
1
1
1
1
1
1
1
1
1
1
1
1
1
1
1
1
1
1
1
1
1
1
1
1
1
1
1
1
1
1
1
1
1
1
1
1
1
1
1
1
1
1
1
1
1
1
1
1
1
1
1
1
1
1
1
1
1
1
1
1
1
1
1
1
1
1
1
1
1
1
1
1
1
1
1
1
1
1
1
1
1
1
1
1
1
1
1
1
1
1
1
1
1
1
1
1
1
1
1
1
1
1
1
1
1
1
1
1
1
1
1
1
1
1
1
1
1
1
1
1
1
1
1
1
1
1
1
1
1
1
1
1
1
1
1
1
1
1
1
1
1
1
1
1
1
1
1
1
1
1
1
1
1
1
1
1
1
1
1
1
1
VECTORS v double
-5.3992996 9.2705969 0
-9.3446752 -2.8027174 0
7.3222444 -0.1477724 0
7.3216683 -0.15164821 0
7.3215449 -0.15096829 0
7.3216049 -0.15131238 0
7.3215559 -0.15100895 0
7.3216133 -0.1513651 0
7.3215891 -0.15121397 0
7.3215441 -0.15100483 0
7.3214566 -0.15046712 0
7.3224484 -0.15452228 0
7.3223806 -0.15413405 0
7.3226438 -0.15568691 0
7.3226301 -0.15559517 0
7.3165388 -0.11031907 0
7.3165591 -0.11051972 0
7.3164902 -0.10988479 0
7.3164828 -0.10982112 0
7.3178751 -0.1204975 0
7.3178308 -0.12029586 0
7.318187 -0.12048928 0
7.3185768 -0.12250907 0
7.3197585 -0.12647623 0
7.4345457 -0.2845319 0
8.7358636 -9.028431 0
11.85462 2.6221947 0
-7.3216582 0.11739303 0
-7.3211415 0.10807223 0
-7.321016 0.10755779 0
-7.3210775 0.10777244 0
-7.3210268 0.1076238 0
-7.3210862 0.1077998 0
-7.3210611 0.10772666 0
-7.3210144 0.1076606 0
-7.3209241 0.10738636 0
-7.3219459 0.10942415 0
-7.3218763 0.10923206 0
-7.3221472 0.11003723 0
-7.322133 0.1099853 0
-7.3159107 0.085996198 0
-7.315932 0.086059801 0
-7.3158613 0.085737393 0
-7.3158537 0.085714038 0
-7.3172824 0.091616489 0
-7.3172365 0.091552682 0
-7.3176029 0.091608928 0
-7.3180096 0.09262348 0
-7.3191696 0.10184958 0
-7.430748 0.45596551 0
-9.5016134 3.8917417 0
-9.9283198 -0.86208213 0
7.3177143 -0.067536158 0
7.3171136 -0.056336225 0
7.3171171 -0.05605769 0
7.3171214 -0.056143684 0
7.3171311 -0.056100873 0
7.3171408 -0.056152192 0
7.3171357 -0.056131686 0
7.317141 -0.056131656 0
7.3171367 -0.056047132 0
7.3172859 -0.056663831 0
7.3176035 -0.056604991 0
7.3172437 -0.056862981 0
7.3176374 -0.05684134 0
7.3172743 -0.049372569 0
7.3173425 -0.049372114 0
7.3173445 -0.04927444 0
7.3173446 -0.049271856 0
7.317436 -0.051308619 0
7.3174414 -0.051308553 0
7.3174484 -0.05130823 0
7.3174806 -0.051611881 0
7.3180604 -0.060557542 0
7.4003697 -0.40505174 0
14.751064 -3.3912385 0
10.828074 0.74544992 0
-7.3155657 0.030987997 0
-7.3149481 0.025039002 0
-7.3149518 0.024918712 0
-7.3149563 0.024946214 0
-7.3149664 0.024932455 0
-7.3149765 0.024948829 0
-7.3149712 0.024942294 0
-7.3149767 0.024942252 0
-7.3149722 0.024915228 0
-7.3151279 0.02511179 0
-7.3154543 0.025091309 0
-7.3150861 0.025175786 0
-7.3154895 0.025166306 0
-7.3151038 0.023081334 0
-7.3151746 0.023080658 0
-7.3151766 0.023049377 0
-7.3151767 0.023048588 0
-7.3152734 0.023700127 0
-7.315279 0.023700117 0
-7.3152862 0.023699951 0
-7.3153193 0.023796806 0
-7.3159231 0.028779617 0
-7.4013163 0.21203026 0
-10.016235 0.46280079 0
-10.015996 -0.081857778 0
7.3570073 -0.0075607824 0
7.3584598 -0.0056665239 0
7.3584672 -0.0056413836 0
7.3584672 -0.0056413833 0
7.3584672 -0.0056413831 0
7.3584672 -0.0056413835 0
7.3584672 -0.0056413834 0
7.3584672 -0.0056413835 0
7.3584672 -0.0056413846 0
7.3584672 -0.0056413657 0
7.3584672 -0.005641484 0
7.3584673 -0.0056413544 0
7.3584672 -0.0056412337 0
7.3584815 -0.0058873726 0
7.3584815 -0.0058873575 0
7.3584815 -0.0058873573 0
7.3584815 -0.005887357 0
7.3584815 -0.0058873212 0
7.3584815 -0.0058873208 0
7.3584815 -0.0058872939 0
7.3584814 -0.0058869452 0
7.3585102 -0.0076476442 0
7.3603217 -0.076203896 0
11.213427 -0.37370327 0
11.216482 0.066763916 0
-7.3548369 0.0023285535 0
-7.3564392 0.0017925454 0
-7.3564474 0.0017851806 0
-7.3564474 0.0017851798 0
-7.3564474 0.0017851797 0
-7.3564474 0.0017851798 0
-7.3564474 0.0017851798 0
-7.3564474 0.0017851798 0
-7.3564474 0.0017851802 0
-7.3564474 0.001785174 0
-7.3564473 0.0017852116 0
-7.3564475 0.0017851705 0
-7.3564473 0.0017851362 0
-7.3564621 0.0018630114 0
-7.3564621 0.0018630106 0
-7.3564621 0.0018630106 0
-7.3564621 0.0018630107 0
-7.3564621 0.0018629986 0
-7.3564621 0.0018629987 0
-7.3564621 0.0018629905 0
-7.3564621 0.0018629635 0
-7.3564919 0.0023962473 0
-7.3583773 0.02011377 0
-10.000179 0.0029223683 0
-10.00018 1.1417853e-05 0
-10.000035 -5.9083032e-06 0
-10.000029 -2.8344577e-07 0
-10.000029 -6.2769797e-10 0
-10.000029 -6.3109938e-10 0
-10.000029 -6.3110009e-10 0
-10.000029 -6.3110109e-10 0
-10.000029 -6.3109826e-10 0
-10.000029 -6.3110176e-10 0
-10.000029 -6.311018e-10 0
-10.000029 -6.3107668e-10 0
-10.000029 -6.3114269e-10 0
-10.000029 -6.3109487e-10 0
-10.000029 -6.0678295e-10 0
-10.000029 -6.8488264e-10 0
-10.000029 -6.5862585e-10 0
-10.000029 -6.5862518e-10 0
-10.000029 -6.5862904e-10 0
-10.000029 -6.5861494e-10 0
-10.000029 -6.5867154e-10 0
-10.000029 -6.0003667e-10 0
-10.000029 2.7496439e-08 0
-10.000029 -1.7414842e-05 0
-10.000025 -0.0029172549 0
-10.000001 0.0029144411 0
-10.000001 1.7234699e-05 0
-10 -2.1538672e-07 0
-10 -5.6984486e-11 0
-10 -9.7073932e-13 0
-10 -1.0267737e-12 0
-10 -1.0268288e-12 0
-10 -1.027659e-12 0
-10 -1.0248689e-12 0
-10 -1.0285111e-12 0
-10 -1.0268546e-12 0
-10 -1.025191e-12 0
-10 -1.0285199e-12 0
-10 -1.0268981e-12 0
-10 -1.0267543e-12 0
-10 -1.069869e-12 0
-10 -1.0733339e-12 0
-10 -1.0716044e-12 0
-10 -1.0715306e-12 0
-10 -1.0700286e-12 0
-10 -1.1200464e-12 0
-10 5.7550296e-11 0
-10 2.7962774e-08 0
-10 -1.7422571e-05 0
-10 -0.0029142538 0
-10 0.0029142538 0
-10 1.7422571e-05 0
-10 -2.7963847e-08 0
-10 -5.8609009e-11 0
-10 4.7256722e-14 0
-10 5.3429229e-17 0
-10 -2.8669514e-18 0
-10 -8.3295273e-16 0
-10 1.9567564e-15 0
-10 -1.6850211e-15 0
-10 -2.8611472e-17 0
-10 1.6315043e-15 0
-10 -1.6752145e-15 0
-10 -7.0900923e-17 0
-10 3.31447e-17 0
-10 1.7414887e-15 0
-10 -1.7446706e-15 0
-10 -6.4393861e-18 0
-10 6.7043435e-17 0
-10 1.562552e-15 0
-10 -4.8453743e-14 0
-10 5.8621946e-11 0
-10 2.7963849e-08 0
-10 -1.7422571e-05 0
-10 -0.0029142538 0
-10 0.0029142538 0
-10 1.7422571e-05 0
-10 -2.796385e-08 0
-10 -5.8620611e-11 0
-10 4.9046781e-14 0
-10 1.4663217e-16 0
-10 -2.5525941e-18 0
-10 -8.3298387e-16 0
-10 1.9571991e-15 0
-10 -1.6845657e-15 0
-10 -2.8753408e-17 0
-10 1.6312049e-15 0
-10 -1.675904e-15 0
-10 -6.9800409e-17 0
-10 3.4039934e-17 0
-10 1.7424404e-15 0
-10 -1.7444486e-15 0
-10 -6.0240955e-18 0
-10 6.7606671e-17 0
-10 1.5624103e-15 0
-10 -4.8453854e-14 0
-10 5.8621946e-11 0
-10 2.7963849e-08 0
-10 -1.7422571e-05 0
-10 -0.0029142538 0
-10 0.0029142538 0
-10 1.7422571e-05 0
-10 -2.7963848e-08 0
-10 -6.3510549e-11 0
-10 -4.8405219e-12 0
-10 1.5105984e-15 0
-10 4.3569156e-18 0
-10 -8.3173495e-16 0
-10 1.9571813e-15 0
-10 -1.6845067e-15 0
-10 -2.7672412e-17 0
-10 1.6328582e-15 0
-10 -1.6733434e-15 0
-10 -7.1816226e-17 0
-10 3.3098488e-17 0
-10 1.7412803e-15 0
-10 -1.744551e-15 0
-10 -5.9713504e-18 0
-10 7.4741334e-17 0
-10 1.5662221e-15 0
-10 -4.8457158e-14 0
-10 5.8621948e-11 0
-10 2.7963849e-08 0
-10 -1.7422571e-05 0
-10 -0.0029142538 0
-9.9999999 0.0029142538 0
-9.9999999 1.7422571e-05 0
-9.9999999 -2.7963849e-08 0
-9.9999999 -5.8622556e-11 0
-9.9999999 4.7119373e-14 0
-9.9999999 5.4663933e-17 0
-9.9999999 -2.3454228e-18 0
-9.9999999 -8.3150711e-16 0
-9.9999999 1.9613218e-15 0
-9.9999999 -1.6799409e-15 0
-9.9999999 -2.7223737e-17 0
-9.9999999 1.6329795e-15 0
-9.9999999 -1.6733692e-15 0
-9.9999999 -7.1876684e-17 0
-9.9999999 3.3239534e-17 0
-9.9999999 1.7667762e-15 0
-9.9999999 -1.0467434e-15 0
-9.9999999 7.1552049e-16 0
-9.9999999 -2.2949278e-13 0
-9.9999999 2.137404e-15 0
-9.9999999 1.8173171e-13 0
-9.9999999 5.8621948e-11 0
-9.9999999 2.7963849e-08 0
-9.9999999 -1.7422571e-05 0
-9.9999999 -0.0029142538 0
-9.9999999 0.0029142538 0
-9.9999999 1.7422567e-05 0
-9.9999999 -2.7967728e-08 0
-9.9999999 -5.4063333e-11 0
-9.9999999 4.9350869e-12 0
-9.9999999 -1.4478562e-15 0
-9.9999999 -7.9857982e-18 0
-9.9999999 -8.3190168e-16 0
-9.9999999 -2.2820255e-13 0
-9.9999999 -2.3184419e-13 0
-9.9999999 4.9058109e-17 0
-9.9999999 1.7108713e-15 0
-9.9999999 -1.6752642e-15 0
-9.9999999 -6.8972845e-17 0
-9.9999999 3.4436508e-17 0
-9.9999999 1.9320045e-15 0
-9.9999999 -3.0467045e-12 0
-9.9999999 -3.0447833e-12 0
-9.9999999 -3.5967884e-12 0
-9.9999998 -3.5951473e-12 0
-9.9999999 -4.7917764e-14 0
-9.9999999 5.8621957e-11 0
-9.9999999 2.7963849e-08 0
-9.9999999 -1.7422571e-05 0
-9.9999999 -0.0029142538 0
-9.9999999 0.0029142538 0
-9.9999999 1.7422572e-05 0
-9.9999998 -2.7962772e-08 0
-9.9999998 -5.86241e-11 0
-9.9999998 4.5624635e-14 0
-9.9999998 -3.1111045e-17 0
-9.9999998 1.5339683e-16 0
-9.9999998 -6.3913316e-16 0
-9.9999998 1.8076991e-15 0
-9.9999997 -1.8901977e-15 0
-9.9999997 -9.9185014e-13 0
-9.9999997 -9.9018135e-13 0
-9.9999997 -1.679186e-15 0
-9.9999997 -6.4257612e-17 0
-9.9999997 4.3524722e-17 0
-9.9999997 1.7544921e-15 0
-9.9999997 -1.6124274e-15 0
-9.9999996 1.2956531e-16 0
-9.9999996 2.3020015e-13 0
-9.9999995 -2.0704715e-12 0
-9.9999995 -2.3506994e-12 0
-9.9999995 5.8621943e-11 0
-9.9999995 2.7963849e-08 0
-9.9999995 -1.7422571e-05 0
-9.9999995 -0.0029142538 0
-9.9999995 0.0029142538 0
-9.9999995 1.7422575e-05 0
-9.9999996 -2.7959973e-08 0
-9.9999996 -5.8509914e-11 0
-9.9999996 -1.6917643e-13 0
-9.9999996 1.6261909e-16 0
-9.9999996 -1.4917094e-12 0
-9.9999996 -1.9692958e-12 0
-9.9999996 -8.0478661e-13 0
-9.9999996 -3.3166652e-13 0
-9.9999996 -2.7483252e-17 0
-9.9999995 -2.1479015e-13 0
-9.9999995 -2.1804169e-13 0
-9.9999995 8.8933036e-16 0
-9.9999995 2.0942164e-15 0
-9.9999995 2.3206619e-15 0
-9.9999995 1.5506465e-12 0
-9.9999995 1.5529229e-12 0
-9.9999995 3.5971904e-12 0
-9.9999995 3.5986139e-12 0
-9.9999995 -4.8632924e-14 0
-9.9999995 5.8621945e-11 0
-9.9999995 2.796385e-08 0
-9.9999995 -1.7422574e-05 0
-9.9999995 -0.0029142538 0
-9.9999995 0.0029142538 0
-9.9999995 1.742257e-05 0
-9.9999995 -2.7964928e-08 0
-9.9999995 -5.862241e-11 0
-9.9999994 4.7265845e-14 0
-9.9999994 1.8384214e-16 0
-9.9999994 1.3124539e-16 0
-9.9999993 -8.3992277e-16 0
-9.9999993 1.8634286e-15 0
-9.9999993 -1.753536e-15 0
-9.9999993 9.9178761e-13 0
-9.9999993 9.9345657e-13 0
-9.9999992 -1.0021815e-15 0
-9.9999992 -3.5185541e-12 0
-9.9999992 -7.6663399e-12 0
-9.9999992 1.1328793e-12 0
-9.9999992 5.2737912e-12 0
-9.9999991 -1.3098833e-15 0
-9.9999991 -4.1710848e-16 0
-9.9999991 2.0744041e-12 0
-9.9999991 2.0249726e-12 0
-9.9999991 5.8622126e-11 0
-9.9999991 2.7963848e-08 0
-9.9999991 -1.7422571e-05 0
-9.999999 -0.0029142538 0
-9.999999 0.0029142538 0
-9.999999 1.7422571e-05 0
-9.999999 -2.7963851e-08 0
-9.999999 -5.8407259e-11 0
-9.999999 2.6373281e-13 0
-9.999999 -1.353037e-12 0
-9.999999 1.3870041e-13 0
-9.999999 1.9677271e-12 0
-9.999999 1.038878e-12 0
-9.999999 5.5845219e-13 0
-9.999999 -1.1523524e-16 0
-9.999999 2.1813919e-13 0
-9.999999 2.1683097e-13 0
-9.999999 3.3028313e-16 0
-9.999999 1.9085154e-16 0
-9.9999989 1.4219526e-14 0
-9.9999991 2.1209809e-12 0
-9.9999991 2.105312e-12 0
-9.9999991 6.1407587e-13 0
-9.9999991 -3.5303493e-12 0
-9.9999991 -4.8180528e-12 0
-9.9999991 5.7998382e-11 0
-9.9999991 2.7968294e-08 0
-9.9999991 -1.7422564e-05 0
-9.9999991 -0.0029142538 0
-9.9999991 0.0029142538 0
-9.9999991 1.7422567e-05 0
-9.9999991 -2.7963242e-08 0
-9.999999 -5.8005316e-11 0
-9.999999 6.5747441e-13 0
-9.999999 -8.3819882e-15 0
-9.999999 -7.142515e-14 0
-9.999999 -7.2465945e-14 0
-9.999999 7.0494723e-15 0
-9.999999 3.3258676e-15 0
-9.999999 4.8597573e-15 0
-9.999999 1.8787948e-14 0
-9.999999 -4.7163555e-12 0
-9.999999 3.6759282e-12 0
-9.999999 1.3209775e-11 0
-9.999999 -7.3927282e-11 0
-9.999999 7.8330669e-11 0
-9.999999 9.8160636e-11 0
-9.999999 9.8167404e-11 0
-9.999999 9.8169033e-11 0
-9.9999989 9.7690656e-11 0
-9.9999988 1.5636165e-10 0
-9.9999988 2.8061477e-08 0
-9.9999989 -1.7422472e-05 0
-9.9999989 -0.0029142536 0
-9.9999989 0.0029142537 0
-9.9999988 1.7423291e-05 0
-9.9999988 -2.7865133e-08 0
-9.9999988 4.0283266e-11 0
-9.9999988 1.5381617e-10 0
-9.9999988 -1.2852993e-12 0
-9.9999988 2.7530539e-12 0
-9.9999987 9.685913e-13 0
-9.9999987 9.7153906e-13 0
-9.9999987 1.38501e-12 0
-9.9999987 6.3142037e-12 0
-9.9999987 -6.7118128e-11 0
-9.9999987 8.5477134e-11 0
-9.9999987 1.0000555e-10 0
-9.9999987 9.6570351e-11 0
-9.9999987 -1.0024761e-09 0
-9.9999982 4.880509e-07 0
-9.9999982 4.8696222e-07 0
-9.9999982 4.8695864e-07 0
-9.9999982 4.8696258e-07 0
-9.9999982 4.8696377e-07 0
-9.9999981 4.8701739e-07 0
-9.9999981 5.1490861e-07 0
-9.9999976 -1.6448552e-05 0
-9.9999976 -0.0029132792 0
-9.999983 0.0029142526 0
-9.9999976 1.839884e-05 0
-9.9999976 9.460547e-07 0
-9.9999976 9.7395668e-07 0
-9.9999976 9.7510922e-07 0
-9.9999977 4.8605333e-07 0
-9.9999977 4.8714727e-07 0
-9.9999977 4.8715341e-07 0
-9.9999976 4.8715332e-07 0
-9.9999976 4.8715353e-07 0
-9.9999976 4.8714954e-07 0
-9.9999977 4.8585794e-07 0
-9.9999971 9.7530001e-07 0
-9.9999971 9.742549e-07 0
-9.9999971 9.7424573e-07 0
-9.9999971 9.7426514e-07 0
-9.999997 9.7442152e-07 0
-9.999997 9.7434851e-07 0
-9.999997 9.7434857e-07 0
-9.999997 9.7434665e-07 0
-9.9999969 9.7434698e-07 0
-9.9999969 9.7440896e-07 0
-9.9999968 1.0022797e-06 0
-9.9999968 -1.6448173e-05 0
-9.9999968 -0.0029132786 0
-9.9999821 0.0029142523 0
-9.9999967 1.840048e-05 0
-9.9999967 9.4644228e-07 0
-9.9999967 9.743406e-07 0
-9.9999967 9.7440331e-07 0
-9.9999967 9.7424716e-07 0
-9.9999966 9.7430171e-07 0
-9.9999966 9.7429949e-07 0
-9.9999965 9.7429949e-07 0
-9.9999965 9.7430168e-07 0
-9.9999965 9.7428577e-07 0
-9.9999965 9.7161927e-07 0
-9.9999918 4.8731097e-06 0
-9.9999918 4.8703576e-06 0
-9.9999918 4.8703473e-06 0
-9.9999918 4.8703507e-06 0
-9.9999918 4.8703515e-06 0
-9.9999918 4.8703487e-06 0
-9.9999918 4.8701567e-06 0
-9.9999918 4.8705677e-06 0
-9.9999917 4.8705996e-06 0
-9.9999917 4.8706571e-06 0
-9.9999917 4.8980259e-06 0
-9.9999911 -1.2064451e-05 0
-9.9999911 -0.0029088935 0
-9.9999107 0.0029142489 0
-9.999991 2.279042e-05 0
-9.999991 5.3296273e-06 0
-9.999991 5.357502e-06 0
-9.999991 5.3575268e-06 0
-9.999991 5.3576024e-06 0
-9.999991 5.3576074e-06 0
-9.999991 5.357609e-06 0
-9.9999909 5.3576089e-06 0
-9.9999909 5.3576069e-06 0
-9.9999909 5.3576071e-06 0
-9.9999909 5.3576657e-06 0
-9.9999909 5.3580493e-06 0
-9.9999909 5.357856e-06 0
-9.9999909 5.3578212e-06 0
-9.9999909 5.3578963e-06 0
-9.9999908 5.3579021e-06 0
-9.9999908 5.357892e-06 0
-9.9999908 5.3550206e-06 0
-9.9999881 7.7955337e-06 0
-9.9999881 7.792661e-06 0
-9.999988 7.7927093e-06 0
-9.999988 7.8206196e-06 0
-9.999988 -9.6298162e-06 0
-9.999988 -0.0029064575 0
-9.9998711 0.0029142466 0
-9.999988 2.5228386e-05 0
-9.999988 7.7647892e-06 0
-9.999988 7.7926851e-06 0
-9.999988 7.7921981e-06 0
-9.9999875 8.280221e-06 0
-9.9999874 8.2797244e-06 0
-9.9999874 8.279749e-06 0
-9.9999874 8.2796807e-06 0
-9.9999874 8.279853e-06 0
-9.9999873 8.2798664e-06 0
-9.9999873 8.2798665e-06 0
-9.9999874 8.2798624e-06 0
-9.9999874 8.2797982e-06 0
-9.9999874 8.2794038e-06 0
-9.9999868 8.7674326e-06 0
-9.9999868 8.7669094e-06 0
-9.9999867 8.7669049e-06 0
-9.9999867 8.7669418e-06 0
-9.9999867 8.7673479e-06 0
-9.9999866 8.7671009e-06 0
-9.9999866 8.7671639e-06 0
-9.9999866 8.7951349e-06 0
-9.9999866 -8.655374e-06 0
-9.9999866 -0.0029054832 0
-9.9998728 0.0029143169 0
-10.000006 2.5237503e-05 0
-10.000005 8.252888e-06 0
-10.000005 8.7673266e-06 0
-10.000005 8.7672136e-06 0
-10.000004 8.7669257e-06 0
-10.000004 9.7414526e-06 0
-10.000003 1.0228659e-05 0
-10.000002 1.0227148e-05 0
-10.000002 1.1203299e-05 0
-10.000002 1.1202134e-05 0
-10.000002 1.1202157e-05 0
-10.000002 1.1202141e-05 0
-10.000002 1.1201224e-05 0
-10.000001 1.1689983e-05 0
-10.000001 1.1689112e-05 0
-10.000001 1.2176169e-05 0
-10.000001 1.217615e-05 0
-10.000001 1.2176148e-05 0
-9.999993 1.2176147e-05 0
-9.9999929 1.2176238e-05 0
-9.999985 1.2175332e-05 0
-9.9999851 1.2203191e-05 0
-9.9999851 -5.2551275e-06 0
-9.9999853 -0.0029021432 0
-10.002553 0.0027524219 0
-10.002882 2.9828152e-05 0
-10.002882 1.2154924e-05 0
-10.002881 1.2671017e-05 0
-10.002881 1.315763e-05 0
-10.002881 1.3157603e-05 0
-10.002881 1.3157721e-05 0
-10.002881 1.2670875e-05 0
-10.002896 1.3156982e-05 0
-10.002896 1.3157946e-05 0
-10.002896 1.3157688e-05 0
-10.002896 1.3645421e-05 0
-10.002896 1.3645194e-05 0
-10.002895 1.4132898e-05 0
-10.002895 1.4132992e-05 0
-10.002895 1.4132935e-05 0
-10.002895 1.4132937e-05 0
-10.002895 1.4132937e-05 0
-10.002895 1.4132937e-05 0
-10.002895 1.4132923e-05 0
-10.002894 1.4621946e-05 0
-10.002894 1.4620156e-05 0
-10.002886 1.4646915e-05 0
-10.002886 -2.5229413e-06 0
-10.002725 -0.0027383026 0
-6.9625839 -0.60351634 0
-6.876929 0.25456805 0
-7.3188214 0.13193011 0
-7.3246817 0.15679621 0
-7.3244568 0.15612711 0
-7.3245155 0.15646195 0
-7.3244088 0.15599411 0
-7.3245354 0.15653685 0
-7.3244799 0.15629809 0
-7.3243288 0.15576566 0
-7.3241511 0.15498185 0
-7.3255836 0.16107414 0
-7.3254405 0.16048492 0
-7.3259584 0.16268929 0
-7.325949 0.16257109 0
-7.3151473 0.10282815 0
-7.315442 0.10312778 0
-7.3153108 0.10219239 0
-7.3152901 0.10206069 0
-7.3172503 0.11583308 0
-7.3171476 0.11531762 0
-7.3172469 0.11583268 0
-7.3177648 0.11889572 0
-7.3166517 0.1139364 0
-7.3537526 -0.074516753 0
10.044603 0.09988884 0
10.047244 -0.15894722 0
7.3181378 -0.082707753 0
7.323994 -0.11808843 0
7.3237851 -0.11755349 0
7.3238454 -0.11773004 0
7.3237379 -0.11720572 0
7.3238652 -0.11780789 0
7.3238093 -0.11753248 0
7.3236592 -0.11666653 0
7.3234802 -0.11583322 0
7.3249205 -0.12255112 0
7.3247769 -0.12189949 0
7.3252983 -0.1241798 0
7.3252701 -0.12406788 0
7.3143604 -0.068142418 0
7.3146473 -0.068363065 0
7.3145145 -0.067364023 0
7.3144937 -0.067182907 0
7.3164818 -0.079901357 0
7.3163795 -0.079064473 0
7.3164782 -0.07990348 0
7.3169971 -0.083316657 0
7.3158992 -0.073233276 0
7.3510301 0.30714111 0
-8.623589 -0.073713061 0
-7.0518192 0.2265321 0
-7.3144327 0.034630686 0
-7.3168353 0.064077375 0
-7.3168282 0.063688591 0
-7.3168296 0.063717194 0
-7.3168011 0.063297376 0
-7.3168279 0.063775654 0
-7.3168147 0.063548754 0
-7.3167797 0.062628981 0
-7.3167859 0.061993676 0
-7.3168333 0.067371903 0
-7.3168033 0.066855085 0