# vtk DataFile Version 4.0
hesp visualization file
ASCII
DATASET UNSTRUCTURED_GRID
POINTS 1250 double
30.180867 1.9480525 4
29.816318 1.9843986 4
30.336449 3.116001 4
30.315525 4.2233045 4
30.316484 5.3467155 4
30.316036 6.4687283 4
30.316605 7.5916971 4
30.315944 8.7135684 4
30.316234 9.8362867 4
30.316853 10.959246 4
30.317812 12.082581 4
30.310282 13.198411 4
30.311017 14.321501 4
30.308224 15.441555 4
30.308378 16.564151 4
30.373495 17.762359 4
30.373255 18.884456 4
30.374069 20.008177 4
30.374177 21.130798 4
30.36124 22.23404 4
30.36171 23.357075 4
30.361241 24.478965 4
30.358265 25.597509 4
30.359003 26.717916 4
30.369389 27.752085 4
31.571383 0.3199222 4
31.530701 2.8199482 4
30.946698 3.5678441 4
30.939366 4.6772143 4
30.938995 5.7988463 4
30.939145 6.9216571 4
30.939039 8.0438653 4
30.939165 9.1666273 4
30.939112 10.288964 4
30.939062 11.411299 4
30.938866 12.533296 4
30.940337 13.659227 4
30.940198 14.781363 4
30.940781 15.905179 4
30.940744 17.027555 4
30.925316 18.109432 4
30.925355 19.23202 4
30.925169 20.35392 4
30.925155 21.476337 4
30.928628 22.608886 4
30.928586 23.731222 4
30.928627 24.853809 4
30.929254 25.978036 4
30.935817 27.115309 4
31.468994 28.366913 4
31.167798 1.5596372 4
31.407907 1.8198711 4
31.704979 3.1997724 4
31.712364 4.3372676 4
31.712751 5.4604017 4
31.712593 6.5826024 4
31.712706 7.7052437 4
31.712573 8.8274934 4
31.712629 9.9500436 4
31.712683 11.072584 4
31.71289 12.195377 4
31.711327 13.315372 4
31.711475 14.438065 4
31.710858 15.559558 4
31.710897 16.682083 4
31.727199 17.833717 4
31.727157 18.956101 4
31.727353 20.078969 4
31.727368 21.20146 4
31.723712 22.316496 4
31.723757 23.439036 4
31.723709 24.561421 4
31.723045 25.682616 4
31.716373 26.790332 4
31.178217 27.787941 4
33.214191 0.057674566 4
32.268365 2.4612794 4
32.229719 3.4256045 4
32.228613 4.5372817 4
32.228593 5.6595157 4
32.228598 6.7820344 4
32.228595 7.9044683 4
32.228598 9.0269642 4
32.228597 10.149413 4
32.228597 11.271875 4
32.228592 12.394281 4
32.228628 13.51715 4
32.228625 14.639575 4
32.228639 15.762206 4
32.228638 16.884655 4
32.228268 18.002632 4
32.228268 19.125094 4
32.228263 20.247492 4
32.228263 21.369952 4
32.228372 22.493758 4
32.228372 23.61622 4
32.228372 24.738682 4
32.228388 25.861343 4
32.22926 26.992803 4
32.376564 28.413274 4
33.157397 1.8625509 4
33.237391 2.0921364 4
33.076836 3.325573 4
33.078025 4.4560522 4
33.078047 5.5786754 4
33.078042 6.7011009 4
33.078044 7.8235811 4
33.078041 8.9460214 4
33.078043 10.068492 4
33.078042 11.190954 4
33.078048 12.313452 4
33.078008 13.435652 4
33.078008 14.558138 4
33.077995 15.680492 4
33.077993 16.802962 4
33.078399 17.928174 4
33.078399 19.050636 4
33.078404 20.17314 4
33.078404 21.295603 4
33.078286 22.4172 4
33.078286 23.539662 4
33.078285 24.662124 4
33.078267 25.784457 4
33.077334 26.900138 4
32.919184 27.808708 4
33.563052 1.0103408 4
33.554912 2.264882 4
33.553103 3.3724186 4
33.553093 4.4936168 4
33.553093 5.6160623 4
33.553093 6.7385243 4
33.553093 7.8609864 4
33.553093 8.9834484 4
33.553093 10.10591 4
33.553093 11.228373 4
33.553093 12.350835 4
33.553093 13.473297 4
33.553093 14.595759 4
33.553093 15.718221 4
33.553093 16.840683 4
33.553094 17.963309 4
33.553094 19.085771 4
33.553094 20.208233 4
33.553094 21.330695 4
33.553094 22.453157 4
33.553094 23.575619 4
33.553094 24.698081 4
33.553094 25.820543 4
33.553104 26.944158 4
33.555178 28.109377 4
34.697061 1.2219215 4
34.678453 2.2259947 4
34.406518 3.364131 4
34.406502 4.4874138 4
34.406502 5.6098866 4
34.406502 6.7323487 4
34.406502 7.8548107 4
34.406502 8.9772728 4
34.406502 10.099735 4
34.406502 11.222197 4
34.406502 12.344659 4
34.406502 13.467121 4
34.406502 14.589583 4
34.406502 15.712045 4
34.406502 16.834507 4
34.4065 17.956863 4
34.4065 19.079326 4
34.4065 20.201788 4
34.4065 21.32425 4
34.4065 22.446712 4
34.4065 23.569174 4
34.4065 24.691636 4
34.4065 25.814098 4
34.40649 26.935807 4
34.404204 28.029466 4
34.936166 1.103301 4
34.961644 2.2498363 4
34.87964 3.3673845 4
34.879641 4.489848 4
34.879641 5.6123101 4
34.879641 6.7347721 4
34.879641 7.8572342 4
34.879641 8.9796962 4
34.879641 10.102158 4
34.879641 11.22462 4
34.879641 12.347082 4
34.879641 13.469544 4
34.879641 14.592006 4
34.879641 15.714469 4
34.879641 16.836931 4
34.879641 17.959393 4
34.879641 19.081855 4
34.879641 20.204317 4
34.879641 21.326779 4
34.879641 22.449241 4
34.879641 23.571703 4
34.879641 24.694165 4
34.879641 25.816627 4
34.879641 26.939084 4
34.879643 28.060807 4
36.002158 1.1232042 4
36.002158 2.2449286 4
36.002158 3.3673861 4
36.002158 4.4898482 4
36.002158 5.6123102 4
36.002158 6.7347723 4
36.002158 7.8572343 4
36.002158 8.9796964 4
36.002158 10.102158 4
36.002158 11.22462 4
36.002158 12.347083 4
36.002158 13.469545 4
36.002158 14.592007 4
36.002158 15.714469 4
36.002158 16.836931 4
36.002158 17.959393 4
36.002158 19.081855 4
36.002158 20.204317 4
36.002158 21.326779 4
36.002158 22.449241 4
36.002158 23.571703 4
36.002158 24.694165 4
36.002158 25.816627 4
36.002158 26.939085 4
36.002158 28.060809 4
37.12462 1.1232041 4
37.12462 2.2449287 4
37.12462 3.3673861 4
37.12462 4.4898482 4
37.12462 5.6123102 4
37.12462 6.7347723 4
37.12462 7.8572343 4
37.12462 8.9796964 4
37.12462 10.102158 4
37.12462 11.22462 4
37.12462 12.347083 4
37.12462 13.469545 4
37.12462 14.592007 4
37.12462 15.714469 4
37.12462 16.836931 4
37.12462 17.959393 4
37.12462 19.081855 4
37.12462 20.204317 4
37.12462 21.326779 4
37.12462 22.449241 4
37.12462 23.571703 4
37.12462 24.694165 4
37.12462 25.816627 4
37.12462 26.939085 4
37.12462 28.060809 4
38.247083 1.1232041 4
38.247083 2.2449287 4
38.247083 3.3673861 4
38.247083 4.4898482 4
38.247083 5.6123102 4
38.247083 6.7347723 4
38.247083 7.8572343 4
38.247083 8.9796964 4
38.247083 10.102158 4
38.247083 11.22462 4
38.247083 12.347083 4
38.247083 13.469545 4
38.247083 14.592007 4
38.247083 15.714469 4
38.247083 16.836931 4
38.247083 17.959393 4
38.247083 19.081855 4
38.247083 20.204317 4
38.247083 21.326779 4
38.247083 22.449241 4
38.247083 23.571703 4
38.247083 24.694165 4
38.247083 25.816627 4
38.247083 26.939085 4
38.247083 28.060809 4
39.369545 1.1232041 4
39.369545 2.2449287 4
39.369545 3.3673861 4
39.369545 4.4898482 4
39.369545 5.6123102 4
39.369545 6.7347723 4
39.369545 7.8572343 4
39.369545 8.9796964 4
39.369545 10.102158 4
39.369545 11.22462 4
39.369545 12.347083 4
39.369545 13.469545 4
39.369545 14.592007 4
39.369545 15.714469 4
39.369545 16.836931 4
39.369545 17.959393 4
39.369545 19.081855 4
39.369545 20.204317 4
39.369545 21.326779 4
39.369545 22.449241 4
39.369545 23.571703 4
39.369545 24.694165 4
39.369545 25.816627 4
39.369545 26.939085 4
39.369545 28.060809 4
40.492007 1.1232041 4
40.492007 2.2449287 4
40.492007 3.3673861 4
40.492007 4.4898482 4
40.492007 5.6123102 4
40.492007 6.7347723 4
40.492007 7.8572343 4
40.492007 8.9796964 4
40.492007 10.102158 4
40.492007 11.22462 4
40.492007 12.347083 4
40.492007 13.469545 4
40.492007 14.592007 4
40.492007 15.714469 4
40.492007 16.836931 4
40.492007 17.959393 4
40.492007 19.081855 4
40.492007 20.204317 4
40.492007 21.326779 4
40.492007 22.449241 4
40.492007 23.571703 4
40.492007 24.694165 4
40.492007 25.816627 4
40.492007 26.939085 4
40.492007 28.060809 4
41.614469 1.1232041 4
41.614469 2.2449287 4
41.614469 3.3673861 4
41.614469 4.4898482 4
41.614469 5.6123102 4
41.614469 6.7347723 4
41.614469 7.8572343 4
41.614469 8.9796964 4
41.614469 10.102158 4
41.614469 11.22462 4
41.614469 12.347083 4
41.614469 13.469545 4
41.614469 14.592007 4
41.614469 15.714469 4
41.614469 16.836931 4
41.614469 17.959393 4
41.614469 19.081855 4
41.614469 20.204317 4
41.614469 21.326779 4
41.614469 22.449241 4
41.614469 23.571703 4
41.614469 24.694165 4
41.614469 25.816627 4
41.614469 26.939085 4
41.614469 28.060809 4
42.736931 1.1232041 4
42.736931 2.2449287 4
42.736931 3.3673861 4
42.736931 4.4898482 4
42.736931 5.6123102 4
42.736931 6.7347723 4
42.736931 7.8572343 4
42.736931 8.9796964 4
42.736931 10.102158 4
42.736931 11.22462 4
42.736931 12.347083 4
42.736931 13.469545 4
42.736931 14.592007 4
42.736931 15.714469 4
42.736931 16.836931 4
42.736931 17.959393 4
42.736931 19.081855 4
42.736931 20.204317 4
42.736931 21.326779 4
42.736931 22.449241 4
42.736931 23.571703 4
42.736931 24.694165 4
42.736931 25.816627 4
42.736931 26.939085 4
42.736931 28.060809 4
43.859393 1.1232041 4
43.859393 2.2449287 4
43.859393 3.3673861 4
43.859393 4.4898482 4
43.859393 5.6123102 4
43.859393 6.7347723 4
43.859393 7.8572343 4
43.859393 8.9796964 4
43.859393 10.102158 4
43.859393 11.22462 4
43.859393 12.347083 4
43.859393 13.469545 4
43.859393 14.592007 4
43.859393 15.714469 4
43.859393 16.836931 4
43.859393 17.959393 4
43.859393 19.081855 4
43.859393 20.204317 4
43.859393 21.326779 4
43.859393 22.449241 4
43.859393 23.571703 4
43.859393 24.694165 4
43.859393 25.816627 4
43.859393 26.939085 4
43.859393 28.060809 4
44.981855 1.1232041 4
44.981855 2.2449287 4
44.981855 3.3673861 4
44.981855 4.4898482 4
44.981855 5.6123102 4
44.981855 6.7347723 4
44.981855 7.8572343 4
44.981855 8.9796964 4
44.981855 10.102158 4
44.981855 11.22462 4
44.981855 12.347083 4
44.981855 13.469545 4
44.981855 14.592007 4
44.981855 15.714469 4
44.981855 16.836931 4
44.981855 17.959393 4
44.981855 19.081855 4
44.981855 20.204317 4
44.981855 21.326779 4
44.981855 22.449241 4
44.981855 23.571703 4
44.981855 24.694165 4
44.981855 25.816627 4
44.981855 26.939085 4
44.981855 28.060809 4
46.104317 1.1232041 4
46.104317 2.2449287 4
46.104317 3.3673861 4
46.104317 4.4898482 4
46.104317 5.6123102 4
46.104317 6.7347723 4
46.104317 7.8572343 4
46.104317 8.9796964 4
46.104317 10.102158 4
46.104317 11.22462 4
46.104317 12.347083 4
46.104317 13.469545 4
46.104317 14.592007 4
46.104317 15.714469 4
46.104317 16.836931 4
46.104317 17.959393 4
46.104317 19.081855 4
46.104317 20.204317 4
46.104317 21.326779 4
46.104317 22.449241 4
46.104317 23.571703 4
46.104317 24.694165 4
46.104317 25.816627 4
46.104317 26.939085 4
46.104317 28.060809 4
47.22678 1.1232041 4
47.226779 2.2449287 4
47.226779 3.3673862 4
[...]
POINT_DATA 1250
SCALARS m double
LOOKUP_TABLE default
1
1
1
1
1
1
1
1
1
1
1
1
1
1
1
1
1
1
1
1
1
1
1
1
1
1
1
1
1
1
1
1
1
1
1
1
1
1
1
1
1
1
1
1
1
1
1
1
1
1
1
1
1
1
1
1
1
1
1
1
1
1
1
1
1
1
1
1
1
1
1
1
1
1
1
1
1
1
1
1
1
1
1
1
1
1
1
1
1
1
1
1
1
1
1
1
1
1
1
1
1
1
1
1
1
1
1
1
1
1
1
1
1
1
1
1
1
1
1
1
1
1
1
1
1
1
1
1
1
1
1
1
1
1
1
1
1
1
1
1
1
1
1
1
1
1
1
1
1
1
1
1
1
1
1
1
1
1
1
1
1
1
1
1
1
1
1
1
1
1
1
1
1
1
1
1
1
1
1
1
1
1
1
1
1
1
1
1
1
1
1
1
1
1
1
1
1
1
1
1
1
1
1
1
1
1
1
1
1
1
1
1
1
1
1
1
1
1
1
1
1
1
1
1
1
1
1
1
1
1
1
1
1
1
1
1
1
1
1
1
1
1
1
1
1
1
1
1
1
1
1
1
1
1
1
1
1
1
1
1
1
1
1
1
1
1
1
1
1
1
1
1
1
1
1
1
1
1
1
1
1
1
1
1
1
1
1
1
1
1
1
1
1
1
1
1
1
1
1
1
1
1
1
1
1
1
1
1
1
1
1
1
1
1
1
1
1
1
1
1
1
1
1
1
1
1
1
1
1
1
1
1
1
1
1
1
1
1
1
1
1
1
1
1
1
1
1
1
1
1
1
1
1
1
1
1
1
1
1
1
1
1
1
1
1
1
1
1
1
1
1
1
1
1
1
1
1
1
1
1
1
1
1
1
1
1
1
1
1
1
1
1
1
1
1
1
1
1
1
1
1
1
1
1
1
1
1
1
1
1
1
1
1
1
1
1
1
1
1
1
1
1
1
1
1
1
1
1
1
1
1
1
1
1
1
1
1
1
1
1
1
1
1
1
1
1
1
1
1
1
1
1
1
1
1
1
1
1
1
1
1
1
1
1
1
1
1
1
1
1
1
1
1
1
1
1
1
1
1
1
1
1
1
1
1
1
1
1
1
1
1
1
1
1
1
1
1
1
1
1
1
1
1
1
1
1
1
1
1
1
1
1
1
1
1
1
1
1
1
1
1
1
1
1
1
1
1
1
1
1
1
1
1
1
1
1
1
1
1
1
1
1
1
1
1
1
1
1
1
1
1
1
1
1
1
1
1
1
1
1
1
1
1
1
1
1
1
1
1
1
1
1
1
1
1
1
1
1
1
1
1
1
1
1
1
1
1
1
1
1
1
1
1
1
1
1
1
1
1
1
1
1
1
1
1
1
1
1
1
1
1
1
1
1
1
1
1
1
1
1
1
1
1
1
1
1
1
1
1
1
1
1
1
1
1
1
1
1
1
1
1
1
1
1
1
1
1
1
1
1
1
1
1
1
1
1
1
1
1
1
1
1
1
1
1
1
1
1
1
1
1
1
1
1
1
1
1
1
1
1
1
1
1
1
1
1
1
1
1
1
1
1
1
1
1
1
1
1
1
1
1
1
1
1
1
1
1
1
1
1
1
1
1
1
1
1
1
1
1
1
1
1
1
1
1
1
1
1
1
1
1
1
1
1
1
1
1
1
1
1
1
1
1
1
1
1
1
1
1
1
1
1
1
1
1
1
1
1
1
1
1
1
1
1
1
1
1
1
1
1
1
1
1
1
1
1
1
1
1
1
1
1
1
1
1
1
1
1
1
1
1
1
1
1
1
1
1
1
1
1
1
1
1
1
1
1
1
1
1
1
1
1
1
1
1
1
1
1
1
1
1
1
1
1
1
1
1
1
1
1
1
1
1
1
1
1
1
1
1
1
1
1
1
1
1
1
1
1
1
1
1
1
1
1
1
1
1
1
1
1
1
1
1
1
1
1
1
1
1
1
1
1
1
1
1
1
1
1
1
1
1
1
1
1
1
1
1
1
1
1
1
1
1
1
1
1
1
1
1
1
1
1
1
1
1
1
1
1
1
1
1
1
1
1
1
1
1
1
1
1
1
1
1
1
1
1
1
1
1
1
1
1
1
1
1
1
1
1
1
1
1
1
1
1
1
1
1
1
1
1
1
1
1
1
1
1
1
1
1
1
1
1
1
1
1
1
1
1
1
1
1
1
1
1
1
1
1
1
1
1
1
1
1
1
1
1
1
1
1
1
1
1
1
1
1
1
1
1
1
1
1
1
1
1
1
1
1
1
1
1
1
1
1
1
1
1
1
1
1
1
1
1
1
1
1
1
1
1
1
1
1
1
1
1
1
1
1
1
1
1
1
1
1
1
1
1
1
1
1
1
1
1
1
1
1
1
1
1
1
1
1
1
1
1
1
1
1
1
1
1
1
1
1
1
1
1
1
1
1
1
1
1
1
1
1
1
1
1
1
1
1
1
1
1
1
1
1
1
1
1
1
1
1
1
1
1
1
1
1
1
1
1
1
1
1
1
1
1
1
1
1
1
1
1
1
1
1
1
1
1
1
1
1
1
1
1
1
1
1
1
1
1
1
1
1
1
1
1
1
1
1
1
1
1
1
1
1
1
1
1
1
1
1
1
1
1
1
1
1
1
1
1
1
1
1
1
1
1
1
1
1
1
1
1
1
1
1
1
1
1
1
1
1
1
1
1
1
1
1
1
1
1
1
1
1
1
1
1
1
1
1
1
1
1
1
1
1
1
1
1
1
1
1
1
1
1
1
1
1
1
1
1
1
1
1
1
1
1
1
1
1
1
1
1
1
1
1
1
1
1
VECTORS v double
-5.6774089 9.4772497 0
-9.4316477 -3.2179194 0
7.461928 -6.7356493 0
6.874608 -7.2482455 0
6.9018107 -7.2224193 0
6.8890533 -7.2346184 0
6.9051995 -7.2199805 0
6.8864214 -7.2370177 0
6.8946477 -7.2295945 0
6.9121602 -7.2143898 0
6.9393844 -7.1893548 0
6.7254895 -7.3803742 0
6.7463506 -7.3622766 0
6.6668941 -7.4312126 0
6.6712691 -7.4274718 0
8.5123557 -5.2942565 0
8.5057518 -5.3045193 0
8.5286018 -5.2688638 0
8.5316349 -5.2642158 0
8.1678111 -5.8016034 0
8.1809418 -5.7844713 0
8.1678062 -5.8015993 0
8.0841186 -5.9132501 0
8.1021435 -5.9267884 0
8.4249358 -6.7433571 0
8.8417979 -9.0870477 0
4.566477 11.60254 0
-8.6847343 5.1860676 0
-8.8911145 4.8193895 0
-8.9016088 4.7979915 0
-8.8973535 4.8068401 0
-8.9003781 4.8004717 0
-8.8968003 4.8079998 0
-8.8982915 4.8048602 0
-8.8997317 4.80174 0
-8.9052754 4.7900678 0
-8.8634946 4.8772298 0
-8.867459 4.8690282 0
-8.8508928 4.9030808 0
-8.851953 4.9009349 0
-9.2895573 3.8804654 0
-9.2884414 3.8835884 0
-9.2937052 3.8694436 0
-9.2941071 3.8683498 0
-9.1956937 4.1230042 0
-9.1968899 4.1199096 0
-9.1957048 4.1229699 0
-9.1779164 4.1673472 0
-8.9930828 4.5695717 0
7.4726638 6.833516 0
-9.4576204 3.9825582 0
-2.4005478 -9.8570684 0
8.6586281 -4.8013484 0
8.8759063 -4.3798603 0
8.8866258 -4.360427 0
8.882268 -4.3681717 0
8.8853734 -4.3627513 0
8.8817003 -4.369166 0
8.8832314 -4.3664981 0
8.8847183 -4.3640101 0
8.8904091 -4.3540242 0
8.8475112 -4.4284606 0
8.8515791 -4.4214805 0
8.8345771 -4.4506549 0
8.8356632 -4.4488022 0
9.2840196 -3.5731819 0
9.2828988 -3.5756358 0
9.2882754 -3.5634829 0
9.2886838 -3.5625788 0
9.1881166 -3.7834395 0
9.1893382 -3.7809694 0
9.1881134 -3.783421 0
9.1699073 -3.8214376 0
8.9833178 -4.2217375 0
-7.54787 -6.4387532 0
3.9468901 -13.87987 0
-9.1137688 4.5590414 0
-9.9155516 1.4546494 0
-9.9471897 1.1831464 0
-9.9477963 1.1774616 0
-9.9476461 1.1788534 0
-9.9477234 1.1781614 0
-9.9476306 1.1789938 0
-9.9476679 1.178661 0
-9.9476718 1.1786604 0
-9.9478238 1.1772916 0
-9.9467111 1.1872967 0
-9.9468133 1.1863932 0
-9.9463543 1.1905146 0
-9.9463841 1.1902083 0
-9.95818 1.0809946 0
-9.9581765 1.0809943 0
-9.9583417 1.0794133 0
-9.9583483 1.0793724 0
-9.9549159 1.1123518 0
-9.95492 1.1123509 0
-9.9549164 1.1123461 0
-9.9543916 1.1172515 0
-9.9290711 1.3446091 0
-5.6889856 8.8698428 0
-0.48857102 6.0064827 0
11.338303 1.0753497 0
9.9220482 -1.2471521 0
9.9543655 -1.0106108 0
9.9549674 -1.0057757 0
9.9548233 -1.0069071 0
9.9548945 -1.0063451 0
9.9548081 -1.0070212 0
9.9548427 -1.0067509 0
9.9548425 -1.0067511 0
9.9549842 -1.0056391 0
9.953941 -1.0137655 0
9.9540274 -1.0130329 0
9.9536048 -1.0163795 0
9.9536283 -1.0161312 0
9.9644542 -0.92937903 0
9.9644529 -0.92937674 0
9.9646031 -0.92809112 0
9.9646071 -0.92805752 0
9.9614256 -0.95487374 0
9.9614252 -0.95487395 0
9.9614255 -0.95486925 0
9.9609447 -0.95885414 0
9.9355856 -1.1577733 0
5.5600316 -7.6065332 0
-9.8417221 -2.0408002 0
-10.047358 0.34155449 0
-10.011395 0.12273679 0
-10.011892 0.091800145 0
-10.011899 0.091395878 0
-10.011898 0.091395231 0
-10.011899 0.091395538 0
-10.011898 0.091395178 0
-10.011898 0.091395324 0
-10.011898 0.09139532 0
-10.011899 0.091395974 0
-10.011892 0.091391326 0
-10.011892 0.09139374 0
-10.01189 0.091389795 0
-10.011889 0.091387508 0
-10.011931 0.095448035 0
-10.011931 0.095447283 0
-10.011932 0.095447979 0
-10.011932 0.095448129 0
-10.01191 0.095432938 0
-10.01191 0.095433066 0
-10.01191 0.09543267 0
-10.011908 0.095426675 0
-10.011481 0.12368564 0
-9.9443744 1.1871178 0
-6.4252476 8.1889025 0
-9.7758623 -1.6094329 0
10.014936 -0.10064668 0
10.014981 -0.075352548 0
10.014983 -0.075020251 0
10.014983 -0.075020237 0
10.014983 -0.075020234 0
10.014983 -0.075020239 0
10.014983 -0.075020237 0
10.014983 -0.075020239 0
10.014983 -0.075020252 0
10.014983 -0.075020004 0
10.014983 -0.075021577 0
10.014983 -0.075019856 0
10.014983 -0.075018306 0
10.01495 -0.078291422 0
10.01495 -0.078291289 0
10.01495 -0.078291287 0
10.01495 -0.078291282 0
10.01495 -0.078290817 0
10.01495 -0.078290808 0
10.01495 -0.078290455 0
10.01495 -0.078286708 0
10.014684 -0.10146986 0
9.9539864 -0.9743633 0
7.4577824 -6.5118161 0
10.97027 1.31188 0
-10.012072 -0.00014640761 0
-10.012053 -4.6759681e-05 0
-10.012053 -4.585172e-05 0
-10.012053 -4.58551e-05 0
-10.012053 -4.5855072e-05 0
-10.012053 -4.5855113e-05 0
-10.012053 -4.5855089e-05 0
-10.012053 -4.5855101e-05 0
-10.012053 -4.5855027e-05 0
-10.012053 -4.585521e-05 0
-10.012053 -4.5855993e-05 0
-10.012053 -4.5854866e-05 0
-10.012053 -4.5837669e-05 0
-10.012053 -4.7866718e-05 0
-10.012053 -4.7851663e-05 0
-10.012053 -4.7851407e-05 0
-10.012053 -4.7851276e-05 0
-10.012053 -4.7852033e-05 0
-10.012053 -4.7851547e-05 0
-10.012053 -4.7849759e-05 0
-10.012053 -4.7617796e-05 0
-10.012053 -7.8672384e-05 0
-10.011611 -0.004255544 0
-10.000044 0.0036282159 0
-10.000052 1.6260675e-05 0
-10.000015 -3.1541897e-06 0
-10.000011 -9.4747118e-08 0
-10.000011 -1.4809598e-09 0
-10.000011 -1.4927308e-09 0
-10.000011 -1.4927309e-09 0
-10.000011 -1.4927326e-09 0
-10.000011 -1.4927289e-09 0
-10.000011 -1.492733e-09 0
-10.000011 -1.4927388e-09 0
-10.000011 -1.4926622e-09 0
-10.000011 -1.4928703e-09 0
-10.000011 -1.4927157e-09 0
-10.000011 -1.3900598e-09 0
-10.000011 -1.6685139e-09 0
-10.000011 -1.5577849e-09 0
-10.000011 -1.5577873e-09 0
-10.000011 -1.5578012e-09 0
-10.000011 -1.557762e-09 0
-10.000011 -1.5579304e-09 0
-10.000011 -1.4563774e-09 0
-10.000011 5.2052494e-08 0
-10.000011 -1.9818181e-05 0
-10.000009 -0.0036239192 0
-10 0.0036226219 0
-10 1.9802494e-05 0
-10 -1.0304339e-07 0
-10 -9.9667212e-11 0
-10 1.282938e-13 0
-10 -1.278131e-14 0
-10 -1.3194086e-14 0
-10 -1.4226939e-14 0
-10 -1.0759516e-14 0
-10 -1.5284859e-14 0
-10 -1.3227088e-14 0
-10 -1.1164699e-14 0
-10 -1.527413e-14 0
-10 -1.3304313e-14 0
-10 -1.3126113e-14 0
-10 -1.0043357e-13 0
-10 -1.0471865e-13 0
-10 -1.3769851e-14 0
-10 -1.3678138e-14 0
-10 -1.1927688e-14 0
-10 -1.5214016e-13 0
-10 1.0149325e-10 0
-10 5.2878906e-08 0
-10 -1.9837784e-05 0
-10 -0.0036225661 0
-10 0.0036225661 0
-10 1.9837785e-05 0
-10 -5.2878934e-08 0
-10 -1.0931153e-10 0
-10 -7.6667655e-12 0
-10 4.0095825e-15 0
-10 1.5117225e-17 0
-10 -1.0330521e-15 0
-10 2.4321902e-15 0
-10 -2.0924043e-15 0
-10 -3.4008604e-17 0
-10 2.0290149e-15 0
-10 -1.2381458e-13 0
-10 -1.2182418e-13 0
-10 4.1862088e-17 0
-10 2.1644484e-15 0
-9.9999999 -2.1657248e-15 0
-9.9999999 -3.4684236e-18 0
-9.9999999 1.9319382e-16 0
-9.9999999 1.8484531e-15 0
-9.9999999 -1.3847364e-13 0
-9.9999999 1.0150721e-10 0
-9.9999999 5.2878927e-08 0
-9.9999999 -1.9837785e-05 0
-9.9999999 -0.0036225661 0
-9.9999999 0.0036225661 0
-9.9999999 1.9837785e-05 0
-9.9999999 -5.2878925e-08 0
-9.9999999 -1.0150782e-10 0
-9.9999998 1.3676219e-13 0
-9.9999998 1.7470969e-16 0
-9.9999998 -2.9382839e-18 0
-9.9999998 -1.0306368e-15 0
-9.9999998 2.5299258e-15 0
-9.9999998 -1.9930177e-15 0
-9.9999998 -2.934579e-17 0
-9.9999998 2.0289898e-15 0
-9.9999998 -2.0796892e-15 0
-9.9999998 -8.8142884e-17 0
-9.9999998 4.192699e-17 0
-9.9999998 9.1082015e-14 0
-9.9999998 8.8769381e-14 0
-9.9999998 2.2087651e-15 0
-9.9999998 -1.1241375e-12 0
-9.9999998 9.2758786e-14 0
-9.9999998 1.0769842e-12 0
-9.9999998 1.0150723e-10 0
-9.9999998 5.2878927e-08 0
-9.9999998 -1.9837785e-05 0
-9.9999998 -0.0036225661 0
-9.9999998 0.0036225661 0
-9.9999998 1.9837779e-05 0
-9.9999998 -5.2886348e-08 0
-9.9999998 -9.5037509e-11 0
-9.9999998 7.9408425e-12 0
-9.9999998 -3.7591631e-15 0
-9.9999998 -1.738906e-17 0
-9.9999998 -1.0309675e-15 0
-9.9999998 -1.1240126e-12 0
-9.9999998 -1.12852e-12 0
-9.9999998 4.1294941e-16 0
-9.9999998 2.4774409e-15 0
-9.9999998 1.1967461e-13 0
-9.9999998 1.2164933e-13 0
-9.9999998 4.5961509e-17 0
-9.9999998 3.48538e-15 0
-9.9999998 -5.4182859e-12 0
-9.9999998 -5.4147191e-12 0
-9.9999998 -7.3112815e-12 0
-9.9999997 -7.30967e-12 0
-9.9999998 -1.3572193e-13 0
-9.9999998 1.0150728e-10 0
-9.9999998 5.2878926e-08 0
-9.9999998 -1.9837785e-05 0
-9.9999998 -0.0036225661 0
-9.9999998 0.0036225661 0
-9.9999998 1.9837788e-05 0
-9.9999998 -5.2876348e-08 0
-9.9999997 -1.0151232e-10 0
-9.9999997 1.3279513e-13 0
-9.9999997 -2.408118e-17 0
-9.9999997 7.3689759e-16 0
-9.9999997 -6.3036243e-17 0
-9.9999997 2.6095129e-15 0
-9.9999996 -1.9085462e-15 0
-9.9999996 -2.4892085e-12 0
-9.9999996 -2.4870518e-12 0
-9.9999996 -1.711522e-15 0
-9.9999996 -6.7022334e-17 0
-9.9999996 7.4903294e-17 0
-9.9999996 2.2285071e-15 0
-9.9999996 -1.5263515e-15 0
-9.9999996 6.5974788e-16 0
-9.9999996 1.1271562e-12 0
-9.9999995 -4.1734087e-12 0
-9.9999995 -5.4403712e-12 0
-9.9999995 1.0150792e-10 0
-9.9999995 5.2878926e-08 0
-9.9999995 -1.9837785e-05 0
-9.9999995 -0.0036225661 0
-9.9999995 0.0036225661 0
-9.9999995 1.9837791e-05 0
-9.9999995 -5.2871511e-08 0
-9.9999995 -1.0158332e-10 0
-9.9999995 -1.2722871e-12 0
-9.9999995 8.4455077e-16 0
-9.9999995 -3.2517334e-12 0
-9.9999995 -4.8712785e-12 0
-9.9999995 -1.1674681e-12 0
-9.9999995 4.4626475e-13 0
-9.9999995 -5.5984592e-17 0
-9.9999994 -1.0937637e-12 0
-9.9999994 -1.0977096e-12 0
-9.9999994 2.6880505e-15 0
-9.9999994 5.7437537e-15 0
-9.9999994 2.1107804e-15 0
-9.9999994 2.1581921e-12 0
-9.9999994 2.1621704e-12 0
-9.9999994 7.312697e-12 0
-9.9999994 7.3145769e-12 0
-9.9999993 -1.3969643e-13 0
-9.9999993 1.0150721e-10 0
-9.9999993 5.2878928e-08 0
-9.9999993 -1.9837791e-05 0
-9.9999993 -0.0036225661 0
-9.9999993 0.0036225661 0
-9.9999993 1.9837782e-05 0
-9.9999993 -5.2881509e-08 0
-9.9999993 -1.0157236e-10 0
-9.9999992 7.2224599e-14 0
-9.9999992 8.2276212e-16 0
-9.9999992 6.5424153e-16 0
-9.9999991 -1.0293858e-15 0
-9.9999991 2.2177545e-15 0
-9.9999991 -2.5431641e-15 0
-9.9999991 2.4891489e-12 0
-9.9999991 2.4912278e-12 0
-9.9999991 -1.292263e-16 0
-9.9999991 -6.040988e-12 0
-9.9999991 -1.2904283e-11 0
-9.9999991 3.2691308e-12 0
-9.999999 1.0130676e-11 0
-9.999999 6.2717329e-15 0
-9.999999 8.6214335e-15 0
-9.999999 4.1010099e-12 0
-9.999999 3.963154e-12 0
-9.999999 1.0151844e-10 0
-9.999999 5.2878935e-08 0
-9.999999 -1.9837785e-05 0
-9.9999988 -0.0036225661 0
-9.9999988 0.0036225661 0
-9.9999988 1.9837785e-05 0
-9.9999988 -5.2879297e-08 0
-9.9999988 -1.0046915e-10 0
-9.9999988 1.5576615e-12 0
-9.9999988 -3.0347261e-12 0
-9.9999988 2.1743183e-13 0
-9.9999988 4.8808672e-12 0
-9.9999988 2.3101518e-12 0
-9.9999988 6.8691991e-13 0
-9.9999988 1.0627328e-14 0
-9.9999988 1.1976833e-12 0
-9.9999988 1.1986392e-12 0
-9.9999988 1.1813589e-14 0
-9.9999987 -7.8771256e-13 0
-9.9999987 -1.2875024e-12 0
-9.9999988 6.595562e-12 0
-9.9999988 6.019963e-12 0
-9.9999988 2.7689326e-12 0
-9.9999988 -4.0873272e-12 0
-9.9999988 -7.0989863e-12 0
-9.9999988 1.0140515e-10 0
-9.9999988 5.2888756e-08 0
-9.9999988 -1.9837769e-05 0
-9.9999988 -0.0036225661 0
-9.9999988 0.0036225661 0
-9.9999988 1.9837791e-05 0
-9.9999988 -5.2876111e-08 0
-9.9999988 -9.8603068e-11 0
-9.9999988 3.0265607e-12 0
-9.9999988 1.8184799e-12 0
-9.9999987 1.1144266e-12 0
-9.9999987 1.1127258e-12 0
-9.9999987 1.8529109e-12 0
-9.9999987 1.848171e-12 0
-9.9999987 1.850426e-12 0
-9.9999987 1.8836821e-12 0
-9.9999988 -5.5142088e-12 0
-9.9999988 8.29343e-12 0
-9.9999988 2.3558291e-11 0
-9.9999982 -1.3769368e-10 0
-9.9999982 4.871961e-07 0
-9.9999982 4.8720942e-07 0
-9.9999982 4.8720936e-07 0
-9.9999982 4.8720936e-07 0
-9.9999981 4.8720766e-07 0
-9.9999981 4.8730928e-07 0
-9.9999981 5.4007975e-07 0
-9.999998 -1.935056e-05 0
-9.999998 -0.003622078 0
-9.9999907 0.003622566 0
-9.9999979 2.0326876e-05 0
-9.9999979 4.3434726e-07 0
-9.9999979 4.8712016e-07 0
-9.9999979 4.8730648e-07 0
-9.9999979 4.8705675e-07 0
-9.9999979 4.8706705e-07 0
-9.9999978 4.8706247e-07 0
-9.9999978 4.8706248e-07 0
-9.9999978 4.8706398e-07 0
-9.9999978 4.8707189e-07 0
-9.9999978 4.8695445e-07 0
-9.9999978 4.8719807e-07 0
-9.9999977 4.8722116e-07 0
-9.9999978 4.8721775e-07 0
-9.9999978 4.8546229e-07 0
-9.9999973 9.7570892e-07 0
-9.9999973 9.739698e-07 0
-9.9999973 9.7396529e-07 0
-9.9999973 9.7397108e-07 0
-9.9999973 9.7397366e-07 0
-9.9999972 9.740664e-07 0
-9.9999972 1.0266974e-06 0
-9.9999967 -1.8376654e-05 0
-9.9999967 -0.0036211037 0
-9.9999748 0.003622564 0
-9.9999966 2.1303051e-05 0
-9.9999967 1.4081306e-06 0
-9.9999967 1.4608999e-06 0
-9.9999967 1.4627682e-06 0
-9.9999974 4.8542714e-07 0
-9.9999974 4.8719451e-07 0
-9.9999974 4.8720395e-07 0
-9.9999973 4.8720322e-07 0
-9.9999973 4.8720428e-07 0
-9.9999973 4.8719768e-07 0
-9.9999974 4.850463e-07 0
-9.9999968 9.760985e-07 0
-9.9999968 9.7444861e-07 0
-9.9999968 9.744345e-07 0
-9.9999968 9.7446543e-07 0
-9.9999967 9.7471489e-07 0
-9.9999966 9.7459793e-07 0
-9.9999966 9.7459829e-07 0
-9.9999966 9.7459506e-07 0
-9.9999965 9.7459645e-07 0
-9.9999965 9.7470306e-07 0
-9.9999964 1.0274149e-06 0
-9.9999964 -1.886308e-05 0
-9.9999964 -0.0036215904 0
-9.9999817 0.0036225636 0
-9.9999962 2.0818716e-05 0
-9.9999962 9.2183319e-07 0
-9.9999962 9.7460244e-07 0
-9.9999962 9.7471538e-07 0
-9.9999962 9.7446327e-07 0
-9.9999962 9.7454805e-07 0
-9.9999962 9.7454368e-07 0
-9.9999961 9.7454569e-07 0
-9.9999961 9.7454922e-07 0
-9.9999961 9.7451882e-07 0
-9.999996 9.6896895e-07 0
-9.9999899 5.8499458e-06 0
-9.9999899 5.8442591e-06 0
-9.9999899 5.844237e-06 0
-9.9999899 5.8442431e-06 0
-9.9999899 5.8442453e-06 0
-9.9999899 5.8442418e-06 0
-9.9999899 5.8439069e-06 0
-9.9999898 5.8446235e-06 0
-9.9999898 5.8446793e-06 0
-9.9999898 5.844779e-06 0
-9.9999897 5.8965424e-06 0
-9.9999892 -1.3505178e-05 0
-9.9999891 -0.00361623 0
-9.9998941 0.0036225566 0
-9.9999891 2.6188591e-05 0
-9.999989 6.2787278e-06 0
-9.999989 6.3314479e-06 0
-9.9999885 6.8185489e-06 0
-9.9999885 6.8186857e-06 0
-9.9999885 6.8186952e-06 0
-9.9999886 6.818683e-06 0
-9.9999879 7.3057605e-06 0
-9.9999879 7.3057421e-06 0
-9.9999879 7.3057429e-06 0
-9.9999879 7.3058579e-06 0
-9.9999879 7.3066544e-06 0
-9.9999879 7.3062629e-06 0
-9.999988 7.3061853e-06 0
-9.9999874 7.7934022e-06 0
-9.9999873 7.7934015e-06 0
-9.9999873 7.7933855e-06 0
-9.9999873 7.7883845e-06 0
-9.9999847 1.0232782e-05 0
-9.9999847 1.0227778e-05 0
-9.9999846 1.0227864e-05 0
-9.9999846 1.0280651e-05 0
-9.9999846 -9.6098212e-06 0
-9.9999845 -0.0036123304 0
-9.9998311 0.0036225527 0
-9.9999844 3.0091297e-05 0
-9.999984 1.017502e-05 0
-9.999984 1.071486e-05 0
-9.999984 1.0713925e-05 0
-9.9999835 1.1202794e-05 0
-9.9999834 1.1201891e-05 0
-9.9999834 1.120195e-05 0
-9.9999834 1.120184e-05 0
-9.9999834 1.1202147e-05 0
-9.9999828 1.1202159e-05 0
-9.9999828 1.1689224e-05 0
-9.9999828 1.1689209e-05 0
-9.9999828 1.1689103e-05 0
-9.9999828 1.1688315e-05 0
-9.9999823 1.2177217e-05 0
-9.9999822 1.2176245e-05 0
-9.9999821 1.2176233e-05 0
-9.9999821 1.2176248e-05 0
-9.9999821 1.2176956e-05 0
-9.9999821 1.2176477e-05 0
-9.9999821 1.2176587e-05 0
-9.9999821 1.2229582e-05 0
-9.9999821 -7.661016e-06 0
-9.999982 -0.0036103803 0
-9.9998198 0.0036226879 0
-10.000005 3.0108918e-05 0
-10.000004 1.1150886e-05 0
-10.000003 1.1690142e-05 0
-10.000003 1.1689788e-05 0
-10.000003 1.1688953e-05 0
-10.000002 1.2664253e-05 0
-10.000002 1.3151615e-05 0
-10.000001 1.3148895e-05 0
-10 1.4126439e-05 0
-10 1.4124387e-05 0
-10 1.412446e-05 0
-10 1.4124419e-05 0
-10 1.4122926e-05 0
-9.9999997 1.4612801e-05 0
-9.9999992 1.4611239e-05 0
-9.9999992 1.5098542e-05 0
-9.9999992 1.5098378e-05 0
-9.9999992 1.5098372e-05 0
-9.9999914 1.509835e-05 0
-9.9999913 1.5098498e-05 0
-9.999983 1.5584196e-05 0
-9.999983 1.5636899e-05 0
-9.999983 -4.2689697e-06 0
-9.9999834 -0.0036071057 0
-10.003166 0.0034216525 0
-10.003586 3.5866148e-05 0
-10.003586 1.5547186e-05 0
-10.003585 1.6088404e-05 0
-10.003585 1.6574685e-05 0
-10.003585 1.6574496e-05 0
-10.003585 1.6574916e-05 0
-10.003585 1.6087581e-05 0
-10.0036 1.7061655e-05 0
-10.0036 1.706263e-05 0
-10.003599 1.7062007e-05 0
-10.003599 1.7550345e-05 0
-10.003599 1.7549619e-05 0
-10.003598 1.8037684e-05 0
-10.003598 1.8037685e-05 0
-10.003598 1.8037587e-05 0
-10.003598 1.8037566e-05 0
-10.003598 1.8525639e-05 0
-10.003598 1.8525649e-05 0
-10.003598 1.8525479e-05 0
-10.003597 1.901542e-05 0
-10.003597 1.9012551e-05 0
-10.003589 1.9062997e-05 0
-10.003589 -7.3784151e-07 0
-10.003388 -0.0034026634 0
9.2870908 -3.672405 0
9.6670434 2.3719701 0
-7.4539306 6.6052699 0
-6.890049 7.2966933 0
-6.9049981 7.2629287 0
-6.8922379 7.2750294 0
-6.9082758 7.2590235 0
-6.8896194 7.2776168 0
-6.897792 7.2694538 0
-6.9150943 7.2514717 0
-6.9421322 7.2244365 0
-6.7296084 7.4324068 0
-6.7503528 7.4125979 0
-6.6713563 7.4869494 0
-6.6759267 7.4826402 0
-8.5100469 5.2309451 0
-8.5033639 5.2422166 0
-8.5261435 5.2040868 0
-8.5291431 5.1989142 0
-8.166064 5.7615662 0
-8.1790951 5.7417102 0
-8.1660792 5.7615343 0
-8.0827679 5.8818459 0
-8.0967526 5.8238672 0
-8.2711776 3.8298301 0
-4.2427324 7.0383272 0
-2.7123179 -7.847677 0
9.3833437 -3.688317 0
8.6848254 -5.2064256 0
8.6981402 -5.1823404 0
8.6946786 -5.1890678 0
8.7070969 -5.1667514 0
8.6928598 -5.1923428 0
8.6994513 -5.1805527 0
8.7220722 -5.1407287 0
8.741266 -5.1055654 0
8.5793558 -5.3913078 0
8.5953924 -5.3639044 0
8.5395042 -5.4589597 0
8.5420821 -5.4546194 0
9.584584 -3.0416754 0
9.5823036 -3.0499735 0
9.5956245 -3.0044044 0
9.5981108 -2.9959069 0
9.4184144 -3.5632806 0
9.4330352 -3.5223943 0
9.4182791 -3.563605 0
9.3618984 -3.7195197 0
9.5194988 -3.2673662 0
0.0011332991 9.8964159 0
8.0370847 -4.2462263 0
6.1488248 6.5594391 0
-9.3761327 3.2772172 0
-8.6668006 4.751955 0
-8.680357 4.7291506 0
-8.6767964 4.7346267 0
-8.6893956 4.7131805 0
-8.6749481 4.7377428 0
-8.6816353 4.7263544 0
-8.7044953 4.686145 0
-8.7239783 4.6526609 0
-8.5596926 4.9271324 0
-8.5759654 4.9008471 0
-8.5192269 4.9911951 0