# vtk DataFile Version 4.0
hesp visualization file
ASCII
DATASET UNSTRUCTURED_GRID
POINTS 1250 double
27.751518 -5.3612078 4
27.409162 -3.6466111 4
31.209709 -4.1347729 4
27.426109 2.7009782 4
31.069996 7.1678518 4
33.684691 3.7431363 4
33.003092 -1.2690778 4
37.168677 11.457329 4
30.375285 12.990582 4
30.037918 9.0016317 4
34.445825 12.049727 4
30.52894 10.980563 4
31.337514 12.114053 4
31.781439 14.328072 4
29.444658 20.433569 4
34.172759 14.305863 4
27.872908 25.089007 4
30.021466 20.178795 4
30.610785 22.180054 4
31.193346 30.815307 4
30.713742 24.254881 4
30.892117 26.328161 4
30.988932 21.550515 4
30.763283 45.273772 4
30.727173 37.645603 4
42.092501 -10.491598 4
26.771963 -3.2275796 4
25.802933 -7.306034 4
30.387988 2.191991 4
27.943203 6.8713324 4
27.789252 2.6387187 4
26.709684 -0.10746208 4
26.116302 2.4763153 4
28.393127 2.4371181 4
28.017662 5.0430742 4
29.081412 10.291311 4
34.067066 9.422396 4
29.815657 15.90862 4
29.060213 11.664609 4
32.858667 12.120717 4
27.496883 22.801129 4
28.44845 13.307787 4
26.283068 17.874112 4
34.064175 18.645668 4
32.074329 25.016374 4
28.8159 30.91949 4
31.144514 20.47816 4
29.984102 31.756334 4
30.33212 41.021302 4
30.501882 32.905047 4
30.950065 -4.6711404 4
31.155504 -12.711117 4
29.891184 -2.5906761 4
34.616355 3.0723846 4
37.578983 -6.5577769 4
34.871788 3.2803453 4
30.484718 -3.1508474 4
35.023873 10.412609 4
33.749071 10.904595 4
32.591013 10.137416 4
30.112981 7.7332272 4
29.378223 10.073701 4
32.029632 11.942324 4
33.506981 8.1383216 4
32.415524 12.3122 4
32.550333 11.933434 4
31.63414 16.628215 4
36.665579 20.813277 4
31.024254 16.747468 4
27.881913 30.032992 4
28.433535 21.488117 4
36.43559 22.428388 4
31.071126 18.841391 4
34.412499 31.598017 4
32.11744 26.6074 4
37.910744 -16.458723 4
30.115208 -3.4697201 4
31.543916 8.0843911 4
34.667781 -6.9502477 4
26.270476 5.8421754 4
29.998131 8.3994123 4
27.061755 9.9602844 4
32.248655 10.153594 4
29.775187 11.71719 4
30.616969 8.6781045 4
29.997067 14.433424 4
32.9749 8.537009 4
30.279063 15.566949 4
32.773594 18.581176 4
30.704218 11.60865 4
31.335022 17.975649 4
28.461684 15.181767 4
33.058111 13.142939 4
32.36549 19.553236 4
29.483628 21.365359 4
36.43606 12.851667 4
29.46798 23.242186 4
28.405263 27.0363 4
29.972803 28.682043 4
32.594421 45.347672 4
35.437322 -11.35181 4
27.591139 -11.482472 4
34.801549 2.5477053 4
34.512276 6.799601 4
24.643645 -4.451152 4
27.155487 6.4072615 4
31.426729 4.469169 4
28.050733 2.2761439 4
35.867594 8.071352 4
35.92845 3.7095387 4
31.700272 7.3905603 4
34.646076 5.5644617 4
35.099046 13.08903 4
31.377223 9.8858435 4
35.046111 14.727037 4
38.025776 18.119956 4
32.626788 15.739896 4
30.554204 17.671582 4
31.274718 18.655514 4
36.165287 20.616868 4
32.200866 26.978364 4
34.257351 26.852715 4
36.177546 25.884254 4
31.964296 29.784642 4
31.103016 28.291269 4
28.202847 -9.009687 4
27.158122 -9.8162977 4
36.183497 9.1815216 4
34.971464 5.6892995 4
31.709495 2.2530901 4
35.082964 8.5726982 4
31.480178 7.1264812 4
36.208083 6.7770226 4
34.652312 11.596422 4
37.802922 15.467724 4
34.562993 15.291446 4
35.901339 15.929549 4
31.675366 20.16579 4
39.349812 16.339873 4
30.231673 13.546066 4
33.660655 24.264373 4
32.659868 21.090751 4
33.943347 23.80558 4
35.143491 27.575965 4
36.405111 30.057238 4
31.336253 31.051454 4
32.246025 19.878172 4
29.894682 29.239354 4
35.940164 36.575956 4
27.440833 30.895246 4
31.258533 2.4592096 4
25.805609 -13.863802 4
35.301365 0.98185395 4
30.845769 -2.4772294 4
30.982777 -0.45967509 4
30.102735 6.107343 4
30.179081 5.6812197 4
33.017591 9.0323954 4
31.521421 10.290925 4
28.029409 10.624831 4
37.110073 11.709135 4
31.097929 13.502183 4
31.086232 11.414067 4
34.076949 16.550812 4
31.010811 17.495818 4
27.869008 15.861514 4
30.974374 19.889147 4
29.152112 21.696467 4
34.568025 27.350127 4
32.794848 21.822679 4
30.744562 24.933403 4
31.516917 26.874034 4
32.077848 30.313768 4
33.265365 25.759438 4
26.485469 35.428487 4
44.361243 -6.6807296 4
31.152873 -1.0439691 4
32.829106 -6.4398297 4
32.208299 5.674939 4
34.330576 10.075253 4
28.070284 -6.664559 4
35.226509 8.0876199 4
26.117819 7.1498029 4
36.147579 5.6616162 4
36.962042 7.8388864 4
32.765877 12.856312 4
30.332091 14.423026 4
35.318086 21.459242 4
33.727327 11.186154 4
36.524744 15.424165 4
33.934278 18.97794 4
36.173892 15.732027 4
30.624254 22.687761 4
35.679091 21.400585 4
28.94874 22.091649 4
31.589225 20.541304 4
28.593537 32.881467 4
34.133022 30.793696 4
33.394499 29.920186 4
42.256979 38.185395 4
31.990037 5.2437268 4
32.521335 3.4913068 4
32.576741 0.55874832 4
33.189653 -8.4767241 4
30.737773 1.5971602 4
30.571452 3.9569145 4
34.557139 4.4007813 4
35.680657 10.080335 4
35.132917 11.203123 4
35.353797 11.762191 4
32.572383 16.988376 4
32.582304 19.391881 4
30.513566 14.55394 4
31.072209 14.342107 4
35.237035 22.085338 4
37.606051 18.614305 4
31.480353 13.143578 4
31.935584 10.495944 4
31.520406 14.550668 4
35.522003 18.557746 4
36.275419 25.048086 4
36.715674 28.696858 4
33.683508 22.290004 4
36.172977 31.855434 4
33.015614 28.740888 4
33.434856 -1.3060664 4
26.070256 -3.9372881 4
35.871095 -1.0160325 4
34.077483 11.096174 4
31.45537 4.0328537 4
34.13529 7.7559254 4
35.04826 7.235487 4
38.009898 8.6197834 4
35.521291 13.420057 4
38.880824 10.446322 4
34.13878 12.984594 4
30.769722 12.901381 4
32.937654 17.854983 4
35.819404 12.448984 4
32.137807 17.210783 4
33.780396 19.41618 4
36.10533 19.64714 4
34.188906 26.421815 4
33.378953 21.245757 4
34.978651 25.146813 4
32.521653 24.700572 4
31.817242 25.731494 4
31.398637 29.260431 4
34.402733 31.263215 4
25.593029 32.60462 4
26.610582 -7.4033759 4
32.361814 -0.89121879 4
32.280514 0.41130577 4
28.866307 -1.231418 4
40.319853 4.9833493 4
34.211144 3.0585094 4
35.364624 7.6229196 4
35.001422 2.9559563 4
36.38437 8.5942233 4
35.747009 10.378999 4
34.683585 15.548452 4
37.73994 14.712133 4
41.004831 11.905007 4
39.446533 9.7664536 4
31.559205 17.194527 4
31.375067 18.266374 4
35.896148 14.64213 4
30.557064 21.041222 4
34.316915 19.952304 4
36.430776 23.101936 4
36.568244 27.143217 4
32.346573 21.246581 4
34.588217 23.265207 4
30.079118 29.582807 4
29.336441 33.389589 4
38.086203 -11.392531 4
28.658001 -1.5129269 4
29.985462 4.6866227 4
37.525489 5.5023226 4
35.030273 6.1149199 4
40.799505 5.7604022 4
35.522348 6.0831127 4
31.610564 9.6165469 4
36.37144 11.659492 4
31.721994 11.359223 4
34.872559 13.998344 4
32.552873 13.320978 4
35.256394 18.346663 4
32.107316 14.274148 4
38.085239 22.101108 4
36.337503 21.34592 4
33.970738 19.755868 4
33.835996 21.740797 4
32.973984 22.652149 4
33.545476 19.963433 4
33.863651 25.25653 4
35.084266 24.420822 4
30.215045 31.155968 4
30.097125 36.365847 4
40.144672 37.427819 4
33.70793 -3.1388763 4
34.478995 2.329785 4
33.276872 1.4015992 4
29.677105 4.9326726 4
34.127158 4.6730772 4
35.798034 -0.7142517 4
37.184235 7.319111 4
37.74176 10.625764 4
38.321012 9.5803573 4
32.698637 10.619329 4
36.841313 9.6702641 4
34.164764 13.301303 4
34.534021 16.025789 4
32.299245 15.072488 4
33.840408 16.142064 4
48.611546 16.297252 4
35.325785 23.623268 4
34.797437 23.453104 4
33.167806 22.460179 4
38.481493 30.039763 4
35.729587 29.581498 4
36.42485 26.38173 4
37.072303 28.247189 4
34.157399 35.137984 4
32.734976 36.596674 4
34.681468 -5.9026278 4
33.321032 -0.18218086 4
36.312645 3.507957 4
33.641997 5.0862739 4
31.366505 1.4521533 4
38.493044 7.4466647 4
33.282855 6.2439471 4
37.22387 8.7052102 4
34.874001 6.6360594 4
33.980858 7.3286249 4
37.954318 10.347906 4
35.363805 12.685202 4
31.284341 15.027691 4
37.402486 14.233903 4
38.797573 18.432965 4
36.444419 14.648192 4
38.959397 17.384787 4
36.850728 17.207159 4
35.166705 17.586521 4
36.92514 22.157562 4
36.923865 23.181748 4
34.288921 23.430571 4
34.607217 25.08039 4
38.556087 33.135025 4
34.329191 34.028018 4
37.190627 2.2841468 4
34.49246 -7.7776954 4
35.220724 2.7099579 4
33.41457 2.2641114 4
33.909238 3.6037584 4
36.477581 6.339807 4
35.028187 4.6724098 4
32.682389 7.4459209 4
35.956867 14.101155 4
36.808334 8.2655126 4
35.256981 15.855803 4
35.233522 12.420903 4
38.970438 15.933454 4
35.51713 16.670427 4
34.656228 18.918579 4
33.480738 18.853833 4
36.290445 18.806497 4
37.574081 20.969946 4
35.695894 22.809392 4
35.512602 25.811779 4
35.255231 25.311446 4
32.807012 29.235703 4
36.94808 21.208695 4
34.67227 32.878181 4
37.56831 30.546961 4
34.167928 0.12950911 4
36.656193 -0.61937231 4
33.780844 1.8236281 4
32.755789 5.2272883 4
35.467083 4.7714116 4
37.945236 9.1033387 4
36.248827 11.949421 4
37.870936 12.60689 4
37.112337 11.189185 4
38.81409 14.147162 4
35.713942 16.335454 4
37.731949 16.04989 4
35.283073 19.013835 4
39.692194 18.93248 4
35.908121 18.12597 4
40.740333 17.854293 4
36.586899 17.991725 4
36.415182 18.443703 4
39.70353 15.916761 4
38.252609 19.458901 4
37.325939 20.328782 4
37.900969 28.698837 4
38.293145 31.796696 4
32.58208 26.50164 4
31.115586 31.953781 4
37.38299 0.25484847 4
36.81124 2.200286 4
34.404662 -0.55355365 4
37.078475 3.7001123 4
35.413841 5.3649565 4
36.128642 7.9574738 4
40.50085 10.593028 4
36.260613 6.0265848 4
34.808616 8.1279332 4
37.030956 12.023566 4
33.143738 16.059855 4
36.576361 10.632416 4
35.206236 13.394268 4
36.857746 18.201764 4
37.483112 17.161872 4
36.588094 15.845899 4
35.526126 16.944297 4
35.544342 20.496532 4
37.859583 20.923532 4
35.421399 24.249367 4
35.692536 25.079584 4
35.371958 24.679309 4
36.748978 25.293176 4
31.837569 32.237394 4
33.888992 29.718339 4
37.074 0.87916419 4
37.676613 1.3448119 4
36.344686 2.5514324 4
36.83818 3.1527352 4
38.014394 5.2891085 4
36.64882 5.9616635 4
38.265534 7.7934655 4
37.346279 10.100283 4
36.4176 11.042599 4
38.309255 13.781305 4
36.910867 14.654737 4
37.810066 15.090502 4
39.409837 14.255085 4
36.914378 17.793334 4
35.237159 17.998913 4
39.332663 22.636224 4
36.922565 19.755113 4
36.871136 20.61789 4
37.23004 22.215148 4
40.176454 22.254305 4
37.513383 24.036132 4
37.576271 22.756207 4
35.6527 26.831666 4
37.340052 24.747105 4
37.158191 30.784377 4
36.502164 -1.1695248 4
[...]
POINT_DATA 1250
SCALARS m double
LOOKUP_TABLE default
1
1
1
1
1
1
1
1
1
1
1
1
1
1
1
1
1
1
1
1
1
1
1
1
1
1
1
1
1
1
1
1
1
1
1
1
1
1
1
1
1
1
1
1
1
1
1
1
1
1
1
1
1
1
1
1
1
1
1
1
1
1
1
1
1
1
1
1
1
1
1
1
1
1
1
1
1
1
1
1
1
1
1
1
1
1
1
1
1
1
1
1
1
1
1
1
1
1
1
1
1
1
1
1
1
1
1
1
1
1
1
1
1
1
1
1
1
1
1
1
1
1
1
1
1
1
1
1
1
1
1
1
1
1
1
1
1
1
1
1
1
1
1
1
1
1
1
1
1
1
1
1
1
1
1
1
1
1
1
1
1
1
1
1
1
1
1
1
1
1
1
1
1
1
1
1
1
1
1
1
1
1
1
1
1
1
1
1
1
1
1
1
1
1
1
1
1
1
1
1
1
1
1
1
1
1
1
1
1
1
1
1
1
1
1
1
1
1
1
1
1
1
1
1
1
1
1
1
1
1
1
1
1
1
1
1
1
1
1
1
1
1
1
1
1
1
1
1
1
1
1
1
1
1
1
1
1
1
1
1
1
1
1
1
1
1
1
1
1
1
1
1
1
1
1
1
1
1
1
1
1
1
1
1
1
1
1
1
1
1
1
1
1
1
1
1
1
1
1
1
1
1
1
1
1
1
1
1
1
1
1
1
1
1
1
1
1
1
1
1
1
1
1
1
1
1
1
1
1
1
1
1
1
1
1
1
1
1
1
1
1
1
1
1
1
1
1
1
1
1
1
1
1
1
1
1
1
1
1
1
1
1
1
1
1
1
1
1
1
1
1
1
1
1
1
1
1
1
1
1
1
1
1
1
1
1
1
1
1
1
1
1
1
1
1
1
1
1
1
1
1
1
1
1
1
1
1
1
1
1
1
1
1
1
1
1
1
1
1
1
1
1
1
1
1
1
1
1
1
1
1
1
1
1
1
1
1
1
1
1
1
1
1
1
1
1
1
1
1
1
1
1
1
1
1
1
1
1
1
1
1
1
1
1
1
1
1
1
1
1
1
1
1
1
1
1
1
1
1
1
1
1
1
1
1
1
1
1
1
1
1
1
1
1
1
1
1
1
1
1
1
1
1
1
1
1
1
1
1
1
1
1
1
1
1
1
1
1
1
1
1
1
1
1
1
1
1
1
1
1
1
1
1
1
1
1
1
1
1
1
1
1
1
1
1
1
1
1
1
1
1
1
1
1
1
1
1
1
1
1
1
1
1
1
1
1
1
1
1
1
1
1
1
1
1
1
1
1
1
1
1
1
1
1
1
1
1
1
1
1
1
1
1
1
1
1
1
1
1
1
1
1
1
1
1
1
1
1
1
1
1
1
1
1
1
1
1
1
1
1
1
1
1
1
1
1
1
1
1
1
1
1
1
1
1
1
1
1
1
1
1
1
1
1
1
1
1
1
1
1
1
1
1
1
1
1
1
1
1
1
1
1
1
1
1
1
1
1
1
1
1
1
1
1
1
1
1
1
1
1
1
1
1
1
1
1
1
1
1
1
1
1
1
1
1
1
1
1
1
1
1
1
1
1
1
1
1
1
1
1
1
1
1
1
1
1
1
1
1
1
1
1
1
1
1
1
1
1
1
1
1
1
1
1
1
1
1
1
1
1
1
1
1
1
1
1
1
1
1
1
1
1
1
1
1
1
1
1
1
1
1
1
1
1
1
1
1
1
1
1
1
1
1
1
1
1
1
1
1
1
1
1
1
1
1
1
1
1
1
1
1
1
1
1
1
1
1
1
1
1
1
1
1
1
1
1
1
1
1
1
1
1
1
1
1
1
1
1
1
1
1
1
1
1
1
1
1
1
1
1
1
1
1
1
1
1
1
1
1
1
1
1
1
1
1
1
1
1
1
1
1
1
1
1
1
1
1
1
1
1
1
1
1
1
1
1
1
1
1
1
1
1
1
1
1
1
1
1
1
1
1
1
1
1
1
1
1
1
1
1
1
1
1
1
1
1
1
1
1
1
1
1
1
1
1
1
1
1
1
1
1
1
1
1
1
1
1
1
1
1
1
1
1
1
1
1
1
1
1
1
1
1
1
1
1
1
1
1
1
1
1
1
1
1
1
1
1
1
1
1
1
1
1
1
1
1
1
1
1
1
1
1
1
1
1
1
1
1
1
1
1
1
1
1
1
1
1
1
1
1
1
1
1
1
1
1
1
1
1
1
1
1
1
1
1
1
1
1
1
1
1
1
1
1
1
1
1
1
1
1
1
1
1
1
1
1
1
1
1
1
1
1
1
1
1
1
1
1
1
1
1
1
1
1
1
1
1
1
1
1
1
1
1
1
1
1
1
1
1
1
1
1
1
1
1
1
1
1
1
1
1
1
1
1
1
1
1
1
1
1
1
1
1
1
1
1
1
1
1
1
1
1
1
1
1
1
1
1
1
1
1
1
1
1
1
1
1
1
1
1
1
1
1
1
1
1
1
1
1
1
1
1
1
1
1
1
1
1
1
1
1
1
1
1
1
1
1
1
1
1
1
1
1
1
1
1
1
1
1
1
1
1
1
1
1
1
1
1
1
1
1
1
1
1
1
1
1
1
1
1
1
1
1
1
1
1
1
1
1
1
1
1
1
1
1
1
1
1
1
1
1
1
1
1
1
1
1
1
1
1
1
1
1
1
1
1
1
1
1
1
1
1
1
1
1
1
1
1
1
1
1
1
1
1
1
1
1
1
1
1
1
1
1
1
1
1
1
1
1
1
1
1
1
1
1
1
1
1
1
1
1
1
1
1
1
1
1
1
1
1
VECTORS v double
1.6617214 -8.887024 0
3.6605621 -10.051364 0
-1.3175388 -16.173055 0
-6.2882727 -5.4276832 0
6.7498898 0.59929195 0
2.4653062 -5.7352628 0
2.9866284 -23.463011 0
-9.9796555 -1.9726422 0
6.0878716 1.5114897 0
18.94829 -10.168866 0
-1.7906816 1.0199304 0
2.936368 0.76637279 0
5.7676299 -9.0550453 0
-12.135307 3.3756885 0
-2.8306683 1.4381827 0
5.7726118 -8.0839118 0
-9.1985796 6.7637971 0
-6.9034691 -11.384212 0
-0.52367655 7.6482659 0
0.50013317 3.7463742 0
-10.266293 16.932517 0
-8.8178033 4.1784284 0
11.094621 1.0279191 0
0.20848963 22.96212 0
1.7616514 11.109519 0
8.8399697 -9.0826405 0
-0.23059769 -9.646862 0
-1.1994956 -12.873971 0
4.144071 -9.3556898 0
-2.2357838 5.5124569 0
-2.4500802 2.6213842 0
-6.5821932 -11.796663 0
15.044723 -28.107561 0
5.1067539 -11.634032 0
4.0467097 -14.066527 0
-15.507738 -8.4580289 0
9.8371914 -13.883749 0
-1.2609798 -2.8754965 0
4.2866459 -6.0211117 0
-6.815613 1.0241463 0
2.6671119 -6.2199427 0
-12.347656 4.0715064 0
0.85353205 1.7875312 0
2.142717 -2.0603336 0
-0.00023954323 -2.9556068 0
0.36822808 11.142412 0
6.3459866 2.9176934 0
8.2162885 0.95841701 0
1.4688726 13.66398 0
-1.620732 3.7048845 0
9.0825536 -13.309323 0
3.108671 -15.900937 0
4.2663265 -7.2194864 0
-12.124806 -5.5911342 0
10.755252 -12.551461 0
10.517861 -11.651111 0
3.7780962 -12.714274 0
2.786079 1.9808708 0
-4.0091595 -6.2887908 0
2.7582454 -5.276955 0
1.5588773 -5.2960021 0
-8.321558 -0.38703738 0
-6.2439616 -8.6634354 0
-1.2907456 -5.5451615 0
1.833276 -2.0066371 0
-16.715071 6.1574433 0
-6.348902 -5.1422074 0
-0.87806745 5.291559 0
0.66777855 1.1276098 0
-5.7957356 16.204927 0
-6.1132891 -2.8351798 0
-0.85841418 3.8891287 0
5.1973322 0.60287028 0
-2.0606007 5.4826921 0
-5.9124381 3.8377967 0
3.9466542 -13.879275 0
-3.3672554 -4.9729525 0
-2.5068823 4.4914785 0
5.1171045 -14.874023 0
2.5257602 -1.8203745 0
-9.5847666 -4.0367543 0
-10.37726 -8.9529078 0
10.818296 -5.5620815 0
5.261011 -14.967814 0
-5.4021862 7.6145301 0
-4.2274004 -0.7503958 0
-6.7996923 -6.8618599 0
12.625098 -9.3282245 0
6.1476102 -9.971864 0
-17.462441 -15.676229 0
-18.198205 -6.8834557 0
-6.5785515 -7.3951063 0
9.786206 2.2935636 0
-2.8900664 -1.4165358 0
-5.2616794 10.586702 0
1.2332584 -18.631659 0
-1.147007 -3.6225701 0
5.3667489 2.5321448 0
-1.5800769 8.1900213 0
0.47113099 14.494977 0
3.3724311 -12.746329 0
-5.5576673 -14.755653 0
-6.2671657 -6.617661 0
16.563913 6.831605 0
-7.7396714 -8.7488692 0
-10.105873 6.3873114 0
-3.995549 -11.175076 0
3.0599577 6.2950503 0
7.2819256 -2.2998642 0
-1.9084516 3.3055196 0
-0.82201515 -1.7077457 0
2.996863 -6.3229991 0
4.2981675 -3.7270516 0
4.7347542 2.3704324 0
2.7003553 8.0774189 0
1.7084759 -2.3852257 0
4.6158774 -13.602363 0
2.0099318 -10.894243 0
-2.6596016 5.5655017 0
3.6984981 10.133344 0
-4.2045139 3.9334008 0
2.4369338 8.6624714 0
2.3610268 9.6954328 0
-2.735651 9.4425433 0
6.2046405 1.6172793 0
-2.3605209 -9.0026704 0
0.093895907 -22.495533 0
6.8728316 6.6120072 0
-9.0890378 -3.9103302 0
1.570698 0.047761082 0
21.899421 -13.124638 0
1.1257186 -14.892367 0
1.0008154 -9.3805788 0
3.0916891 11.066863 0
6.0787356 -3.6600674 0
2.3358118 -0.69916932 0
0.86800808 0.69977142 0
4.2757218 8.389946 0
4.891366 0.83536905 0
9.7652686 -4.1282889 0
0.76334744 -3.4822083 0
-3.0958927 15.495121 0
1.7894348 3.9446605 0
2.0111297 8.6037068 0
-1.0110879 10.62844 0
6.7288446 6.5915221 0
-4.4183132 -1.0871967 0
-7.058049 2.3594511 0
2.7835318 9.3003511 0
14.736589 11.712605 0
-4.0193862 9.889882 0
-7.1221573 -15.01762 0
-6.2504022 -14.133883 0
-3.8488937 -9.4006508 0
-1.053589 -7.8916953 0
9.1072138 -6.7894285 0
-6.4162421 -1.1515488 0
3.1951895 -2.534721 0
0.27908547 -1.9507276 0
0.095963843 2.0043371 0
9.4489478 19.13495 0
6.8054585 1.3142441 0
-0.89788381 -1.379795 0
-1.1115623 -1.9422024 0
-4.6062456 27.083683 0
-2.7374396 -2.9350383 0
13.168094 0.55727879 0
-2.974993 10.194319 0
5.5551407 8.9665866 0
5.9528319 -2.1356811 0
5.1069997 9.8974391 0
-8.8094528 4.2286447 0
-10.897095 13.422922 0
-4.9290103 10.934572 0
-2.2858024 10.289422 0
7.9152496 -6.5258364 0
4.0987397 -8.5505415 0
0.10041779 -13.988814 0
-5.5456067 -5.1184962 0
7.9607467 -11.828933 0
-4.6984099 -16.489818 0
3.9849937 6.4153978 0
2.5592122 -6.9770983 0
-8.8297109 -9.8305618 0
-9.7737838 -10.875371 0
4.0587016 -9.2343827 0
-6.1859982 -2.2629651 0
6.7488252 2.1532135 0
3.3644654 -9.5813405 0
-10.662962 -0.004898961 0
-2.1134719 -1.1248834 0
7.016948 4.5709069 0
0.8875002 -7.0529858 0
-5.087376 0.57495093 0
7.6206215 12.667549 0
-10.099863 -9.6493968 0
-7.840568 10.760292 0
2.7072358 11.923772 0
2.6509851 -2.1091064 0
6.2745396 8.8214544 0
-3.8752067 6.9568839 0
11.754073 -3.7996703 0
-8.8623661 -5.7887119 0
6.0200511 -18.671415 0
9.8751558 -8.6462867 0
-0.91860443 3.6438205 0
-1.4987399 -12.244165 0
0.70134075 -13.713077 0
4.8588984 8.2879386 0
3.6688881 -8.0795184 0
-12.453935 1.1096346 0
-0.58480246 0.46301047 0
-6.9274684 4.8315589 0
-12.847456 -1.5166816 0
11.055935 7.9653997 0
-6.9621208 -7.2966863 0
-2.5007818 -6.0225343 0
5.354844 -13.773264 0
-3.1929761 3.263466 0
4.1763101 10.653965 0
12.847323 -2.8883035 0
3.8950595 3.7798978 0
-6.2814621 -2.5161873 0
6.3023266 7.0177402 0
6.8639636 12.86271 0
2.7529637 -1.0445922 0
-10.139159 -14.986829 0
3.6844358 -18.326758 0
0.58170656 4.6441461 0
-9.3780583 0.47608427 0
-3.2307317 -8.8842512 0
-2.4439789 -0.66591022 0
4.9844776 2.8115251 0
-9.5149871 1.8968654 0
4.2268833 -14.459634 0
-3.4847356 5.622312 0
-4.2706141 -1.4463355 0
-3.9679176 -8.2745696 0
9.0205625 -2.9112163 0
5.3228644 7.3454361 0
-9.8661363 -1.5465885 0
-3.6025872 -7.0569251 0
-11.645561 6.0097911 0
0.91490782 5.4361492 0
-4.3649593 7.3460077 0
-0.65030924 -3.6241496 0
-5.8065989 12.470045 0
11.542855 5.0628763 0
5.9028562 7.9601767 0
-5.9267582 10.85187 0
-9.3696661 -11.170743 0
-1.5134223 -9.28378 0
-0.57629882 -5.0172732 0
9.4132737 -1.7527899 0
4.9604583 0.066755861 0
0.08081333 -1.5809068 0
-0.54118552 10.405443 0
-6.3328267 -4.7054089 0
-1.9476911 -4.0685021 0
-5.4908439 20.436534 0
1.7702895 8.7176733 0
-0.22825435 27.695472 0
8.3745711 1.2626659 0
5.1637709 -10.428741 0
6.1137767 7.4326412 0
5.5095523 7.0610921 0
1.8396989 -0.86662227 0
-12.588682 4.4197931 0
-7.1893369 3.7193125 0
2.1549825 11.559178 0
-4.9375002 2.4081887 0
-14.382416 -4.5177422 0
-3.5183865 1.6530043 0
-9.2197589 2.6075545 0
0.22033704 0.94068876 0
0.8313356 -12.772029 0
12.128877 -2.8211439 0
-10.897732 -9.0874034 0
-6.6930165 6.158003 0
7.0130409 3.1304191 0
-9.5817358 0.51370087 0
-2.2964385 -2.8877595 0
-5.6825259 -9.4599038 0
-5.53351 -10.890079 0
-14.309919 8.4186314 0
3.0932953 7.2155331 0
1.3391643 2.7379702 0
-8.3858239 1.9303585 0
-7.2167393 -0.45453656 0
-2.1902753 -5.4176509 0
6.641357 0.18716865 0
6.7794423 -8.1409874 0
-6.0373963 -0.052998828 0
0.68165704 4.2940047 0
13.484123 8.0640978 0
-1.9609978 2.3750412 0
-1.441435 8.2074081 0
-2.4604302 9.8820239 0
-4.8672528 24.851811 0
3.3787155 9.8880366 0
-0.83964464 -7.6406632 0
3.4585532 -0.6402902 0
-6.8602554 0.34556785 0
-5.3434159 2.7601558 0
-7.3661413 -0.8955949 0
-6.3003171 -6.2922733 0
-0.89357438 4.2626253 0
11.090178 1.7981199 0
8.6976952 0.41252033 0
-10.414006 -1.8903783 0
13.571864 -10.657662 0
-9.7643616 -5.9013429 0
-4.1294984 0.79026492 0
-4.3822961 2.2788799 0
-5.2455813 -0.17634183 0
11.979384 -7.2830737 0
-6.2814353 11.596288 0
-3.9147042 3.9242467 0
8.2730689 1.5674657 0
15.696941 5.954611 0
-0.55460357 5.0712873 0
-8.8113809 -4.8173591 0
-6.3235245 2.0222066 0
-4.5674631 9.5566949 0
4.6986649 19.014355 0
0.34313122 -14.634426 0
3.7375301 -4.5590957 0
7.3515154 -4.8378484 0
0.89553878 -6.971542 0
-9.4705107 3.6735825 0
2.2632084 -11.596066 0
-6.2334656 9.5697496 0
-8.88054 -6.637703 0
-10.579639 1.1825888 0
-1.6920394 -6.4496285 0
6.1879715 -4.8966348 0
5.3431804 -0.5132948 0
-12.888226 1.8033815 0
-0.6199369 4.746645 0
4.5591594 2.9329994 0
11.044602 -1.9616439 0
-5.0744929 19.55847 0
-8.196857 2.4994863 0
13.770965 -4.5545594 0
-4.5280604 0.2461576 0
-8.6683368 11.519374 0
-6.5165575 -2.0256529 0
-6.5018325 4.6518337 0
0.92486549 11.821792 0
-2.9844737 14.123551 0
1.1364172 -13.958192 0
-3.0775934 -22.685028 0
0.38620688 -19.980319 0
0.4018339 1.9096071 0
1.4601358 -6.2943028 0
-7.5012414 -4.1728387 0
-1.9568912 -2.4033833 0
-10.966394 -6.1833895 0
10.069179 7.4779688 0
-2.637252 -10.454709 0
3.5540774 18.297109 0
6.0289066 4.6961951 0
4.1469104 -0.39911759 0
-5.8426035 15.081393 0
-3.087738 -11.883116 0
-9.1693719 2.8109152 0
-7.1673919 -11.51047 0
4.3781759 -4.8039221 0
5.5007473 -2.5688119 0
-8.2315234 1.9355878 0
-0.41572313 5.8106909 0
-1.9618429 3.7469493 0
6.1540969 2.9997872 0
-4.0322369 9.2131535 0
-1.199681 11.280842 0
-4.5694264 -3.8432314 0
4.6853391 -0.87664146 0
-10.509038 -1.2734035 0
-17.986134 1.1771537 0
-6.5941627 -3.646763 0
3.2736444 1.8930089 0
-8.9028145 -5.2115388 0
-3.1558319 -0.47637684 0
-5.6998918 -16.862064 0
1.0617762 14.681297 0
-9.6694179 -4.0092525 0
-0.98671972 7.2028434 0
1.1610126 3.1663514 0
-11.342169 6.5973052 0
-13.033154 -9.410868 0
-4.8259095 -10.980775 0
-0.147564 -2.8277698 0
-4.6504011 -7.0682016 0
-8.9070213 -11.741338 0
4.8221972 0.52067579 0
-7.8833542 2.8135688 0
-1.0590638 4.208171 0
-0.28272114 12.871833 0
6.1957937 -4.0956739 0
-9.891767 3.2405717 0
8.0624311 -6.6820191 0
-3.6274229 3.7024377 0
-10.375772 -10.767195 0
0.77428906 -2.9444595 0
-8.0195857 3.0115223 0
-6.3055208 1.7291402 0
1.5941673 -1.2781186 0
0.96405967 -6.9977784 0
-2.6021336 -3.8255358 0
-4.065527 4.4136031 0
-5.635252 11.798418 0
-0.63881284 -2.3934711 0
8.7157797 -10.749734 0
-0.40365055 8.5231681 0
0.42169 3.7298449 0
1.2759293 -3.3581341 0
-3.9225912 -8.383579 0
1.2164365 8.4403257 0
3.6775065 -8.6411158 0
-6.8843838 4.0496735 0
-14.277161 10.572166 0
-9.1079374 -0.52164858 0
-3.659002 -1.4724107 0
-9.3942781 10.616504 0
-5.5792635 3.1134829 0
-13.376047 -11.187482 0
1.7762144 2.7408014 0
-9.250239 1.8951796 0
-7.3418616 2.142743 0
3.4980513 -3.3351997 0
5.2216176 2.318619 0
-8.0316659 -6.3179009 0
-3.6520625 2.6591019 0
-7.6239683 0.65709531 0
-2.1949036 -5.1479935 0
-5.5645743 4.3615391 0
-3.4448161 -7.0792431 0
-7.2630639 9.6042133 0
-6.1201911 4.9638899 0
-12.421061 5.30219 0
-5.9216338 5.7475023 0
-0.16267414 0.87668701 0
-0.65228056 -1.692595 0
0.33624346 0.28658346 0
-0.016886235 -0.23736057 0
1.2164193 2.2613454 0
-3.9691481 5.5511732 0
2.3201663 12.01508 0
-10.845816 -1.5009487 0
-6.2369429 5.3843268 0
-5.5629921 -8.7818575 0
1.8144351 4.881086 0
-5.2405322 -8.688867 0
6.9081727 -0.99723123 0
-7.5223881 9.2543931 0
-2.7921089 -3.703192 0
0.92603166 0.85884384 0
5.8420185 7.8145533 0
-5.8688403 1.0573999 0
2.982142 -0.21375825 0
-4.5942633 3.1239503 0
11.646117 9.8731191 0
6.7379208 -2.8351756 0
5.8493706 5.3254718 0
6.3738196 0.2299582 0
-4.1034318 -1.3745943 0
4.2061637 -4.8898074 0
0.52275873 6.7425696 0
-1.7476473 -3.1277791 0
-3.0053601 3.2294133 0
-3.5307372 6.4747678 0
0.53005556 -5.905981 0
-9.2593273 8.3340135 0
-6.4765974 -1.338861 0
-9.3543634 -0.42058752 0
-10.368874 -1.8784067 0
2.8433663 -8.0777443 0
-0.35807176 2.1361135 0
-8.5037687 -7.8709013 0
-3.9761484 6.7986696 0
3.6195432 -6.764463 0
-0.031026873 -9.3644702 0
7.862917 -1.6037781 0
0.42529989 5.8007107 0
5.5622008 -18.459145 0
6.9546471 2.3090866 0
-14.323706 8.7360693 0
1.2637649 -8.7782156 0
-6.26665 -0.99456152 0
4.0195447 7.6794514 0
-2.3287326 5.2951058 0
-6.7038791 3.6084 0
-12.793011 -0.82602644 0
-7.1050976 4.0748103 0
-7.337665 0.14985735 0
-12.251145 -2.5284717 0
-9.8322576 -0.15072926 0
-2.6559367 3.8906899 0
-0.55206041 0.87051738 0
-2.2413174 9.6858997 0
-1.6175898 -4.7837974 0
4.8045588 -4.1017648 0
-10.013125 0.008250278 0
-6.2582067 -3.2591943 0
-1.0698695 5.0450665 0
0.39018637 -2.8691768 0
7.7306919 6.0618544 0
-3.6284722 -4.0936794 0
4.810532 1.4310915 0
0.51957081 9.203225 0
-8.429567 10.988353 0
24.113268 -10.912346 0
1.3240414 10.647026 0
2.6227348 10.071052 0
-14.057867 -10.375535 0
-3.07879 -1.5047781 0
7.9592919 -1.4216347 0
-6.7866533 9.7786155 0
-1.9060057 -5.6239396 0
-2.0230043 -8.160778 0
-2.7910598 7.7512124 0
0.2090362 -5.2355444 0
-5.8663889 0.24817453 0
-10.001524 0.016715849 0
4.5221224 -1.6281514 0
-10.009893 0.019192256 0
-10.021874 -0.00098210208 0
-10.001603 0.00046109894 0
-9.4341971 0.77705466 0
-10.017315 0.0035471162 0
-9.9892085 -0.097912832 0
-8.592136 -9.0618455 0
-9.0759545 -3.6208799 0
-7.420327 3.7637941 0
-10.056823 0.7058855 0
-7.2628047 -1.8787359 0
-8.7824273 0.17668307 0
3.7942075 0.077743359 0
9.4323576 5.0500258 0
-13.577443 1.8856147 0
-10.138247 0.20071661 0
0.047047052 -16.393915 0
0.68357375 -2.6339701 0
-2.9309305 -3.222589 0
1.6196205 20.838988 0
-9.9754482 -0.03546319 0
-11.899757 0.94430304 0
-2.2141908 3.4929331 0
-10.021304 0.035497093 0
-9.7361374 1.1325386 0
-9.9993704 0.01445006 0
-9.9999802 -0.00018795489 0
-9.9999844 8.0114321e-05 0
-10.002657 0.062751286 0
-9.996435 -0.0046164518 0
-8.1035092 -4.0960343 0
-6.5006184 1.3054923 0
-10.039391 0.2517253 0
-10.022452 0.047247164 0
-9.9280889 -0.077074613 0
-10.03471 -0.10713182 0
-3.1957626 10.124952 0
-4.3511059 -2.597901 0
-11.457497 -3.8785306 0
-5.2818987 11.9113 0
-7.437964 -0.67536224 0
-0.98124622 16.48812 0
-10.00125 0.011461736 0
-10.078891 -0.11818445 0
6.9364338 12.400991 0
-10.588253 -0.35373001 0
-10.836081 1.1557377 0
-9.9914291 -0.0065406713 0
-9.9894596 0.045083856 0
-10.009851 -0.056236707 0
-9.9989716 0.014450606 0
-9.9997095 -0.00017416508 0
-9.9997131 4.7173628e-05 0
-9.9997844 0.0013428558 0
6.6150769 -13.511949 0
-0.76726947 4.3816914 0
-10.000229 0.00040090268 0
-10.010729 -0.81721552 0
-10.002374 0.0032261838 0
2.2110989 -4.8666057 0
-9.6079259 -0.51636621 0
-9.9948081 -0.20009438 0
-8.2405611 -5.5587121 0
-9.1275205 3.6057648 0
14.110592 -9.4211305 0
0.29436491 3.4518917 0
-0.26327083 -0.0093536431 0
-11.992769 2.2854996 0
-10.000787 -0.0046804839 0
-2.7312263 -5.914664 0
-10.015963 -0.010452249 0
-10.004181 0.0055069352 0
-4.6069972 3.7303931 0
-10.239608 -1.2425237 0
-10.000571 -0.017566409 0
-10.012891 0.01364799 0
-10.014352 -0.00015265693 0
-10.014342 3.9732594e-05 0
-10.014907 0.00077338123 0
-10.017084 -0.0018180195 0
-10.014576 4.6613286e-05 0
-10.014361 0.00044700797 0
-9.8683099 -1.4651142 0
-10.005548 0.021996884 0
-10.057178 0.016566629 0
-1.5581558 -4.5137572 0
-10.097605 -16.247762 0
6.2031024 -0.24100163 0
2.1556634 -3.0505571 0
-10.051328 -0.22014649 0
-10.001589 0.036366241 0
-10.017747 -0.012926716 0
-10.117418 0.029360573 0
-10.01483 -0.00072253615 0
-10.014481 5.9221023e-05 0
-10.014381 3.7938657e-05 0
-10.014379 8.1358833e-05 0
-10.014798 0.00010598278 0
-10.01501 0.0004153132 0
-10.013615 -0.013664088 0
9.3664052 -3.8409628 0
7.9187736 0.90655575 0
10.859469 -18.386631 0
6.969712 -11.322928 0
4.0036381 1.5131239 0
-0.081337505 -5.305766 0
-3.5399369 -2.0302082 0
6.9757108 -2.291386 0
-2.7060013 -1.8005982 0
7.6920847 -0.50823821 0
-6.465931 -4.8003075 0
0.28020279 4.5344625 0
2.3038394 -2.1114089 0
2.75249 -2.1005607 0
7.0833923 7.3818048 0
-7.0567467 -3.2145244 0
1.5437654 1.3977895 0
15.303166 -0.36246777 0
-6.1442469 14.928556 0
16.784912 -4.6282128 0
10.258939 17.002596 0
3.3226508 8.3945954 0
-1.672466 7.3985684 0
-2.6282259 22.954801 0
-4.4856083 10.10318 0
-1.2981557 -13.925649 0
-1.6493131 -0.2718765 0
7.186981 -4.2333936 0
-2.1001119 -41.160083 0
5.2346301 -9.6279644 0
-4.4455253 -16.097582 0
7.9482319 -5.4360111 0
3.696294 -13.637054 0
-5.5379819 4.1036711 0
-9.5361595 8.0113361 0
0.69875448 -1.6026384 0
-0.92669174 -12.713592 0
4.8856983 -1.2829695 0
17.421728 9.0364655 0
9.4382253 9.3758443 0
-0.43293748 4.7188071 0
11.306686 12.146333 0
2.6452304 0.38949219 0
-10.137055 -2.0472328 0
-7.3557686 12.484645 0
-2.9809249 11.908145 0
-7.0932946 4.6101489 0
-5.6732913 -4.6808883 0
9.1983949 4.4474172 0
-0.11997596 9.3396363 0
8.2354509 -6.0208223 0
-6.9263154 -2.7730395 0
2.295996 -7.3150033 0
-5.4050198 -8.7468227 0
7.4727334 -2.8745942 0
-0.61481526 5.7366971 0
8.0639053 -9.3240746 0
2.9980887 -9.3885463 0
5.2293783 3.2587316 0
-5.4585061 5.2534957 0
8.3605974 -11.182852 0
6.8455449 2.7683086 0
-0.053577373 3.2800266 0
-3.1099859 -1.5422149 0
-0.40774707 -11.253145 0
-0.47138954 -8.7152618 0
3.4723996 11.118678 0
-8.2065383 -0.76104055 0
12.187376 2.2245849 0
7.0901482 9.1271081 0
4.0590059 10.062006 0
-1.9655274 11.615842 0
-0.5399083 10.211525 0
-6.5514683 10.530569 0
-4.8793282 3.4052054 0
-6.5485509 -6.7367888 0
-1.968063 -10.559626 0
1.5087302 -2.6507576 0
-33.904623 -5.9228425 0
1.2538506 -1.0168428 0
-1.0493192 -1.1419279 0
-3.2093815 -7.7804839 0
4.2657416 -15.729902 0
-3.3688795 -4.6515109 0
-3.2174051 -10.077618 0
3.3274228 -3.4280888 0
2.6338047 -2.8650181 0
-2.2839644 8.5867558 0
7.5775843 6.3641388 0
-2.2901044 2.7740846 0
-1.8358394 0.59798226 0
-6.6573273 -19.282795 0
-3.3309103 -3.0627749 0
23.626174 7.4318411 0
-8.4589702 17.307385 0
-7.5436307 9.2790299 0
-4.5915179 8.1088283 0
-3.2980819 -5.1786215 0
-1.6581959 -12.570858 0
7.0375802 8.2928385 0
8.3360301 -8.6936325 0
11.026134 -13.580405 0
3.9155817 2.7227298 0
18.133049 -15.199881 0
6.5288428 -5.4229052 0
4.5701904 -0.73747475 0
-4.4383012 -6.3096169 0
-7.5977908 -3.2607877 0
6.5758384 -2.9293045 0
22.139414 16.612352 0
2.5582164 -2.284071 0
-10.790658 1.1231031 0
8.2093595 -2.8694004 0
13.265372 11.369499 0
-59.094665 -200.36014 0
10.587016 9.6645303 0
-8.093294 4.8834686 0
0.36440712 4.563241 0
3.4718369 4.6471257 0
8.9449706 10.738871 0
0.4888131 11.328088 0
1.3587173 23.699262 0