# vtk DataFile Version 4.0
hesp visualization file
ASCII
DATASET UNSTRUCTURED_GRID
POINTS 1250 double
28.133702 -7.4052223 4
28.250393 -5.957977 4
30.917789 -7.8868057 4
26.695779 1.9612005 4
33.261157 6.4667029 4
33.206911 3.7811683 4
33.119429 -6.6118153 4
36.327427 10.465864 4
30.304198 13.836531 4
28.623263 7.9285632 4
33.937059 12.109039 4
34.103681 12.974515 4
32.841348 11.04078 4
31.364448 14.054625 4
28.689222 21.010357 4
35.489127 12.437975 4
27.775911 26.535095 4
28.635415 18.167683 4
30.05533 20.93361 4
30.405167 31.150708 4
29.388336 26.538305 4
31.01263 28.775046 4
33.537053 21.416325 4
30.81124 50.555059 4
31.131226 40.200955 4
44.125694 -12.580606 4
26.716184 -5.4469416 4
24.294206 -10.520639 4
31.148815 1.1716801 4
27.891722 6.597912 4
26.91388 3.1145391 4
24.972803 -1.7929704 4
30.580473 -5.0009359 4
28.760105 1.1620351 4
28.341364 2.5757707 4
25.760221 9.8657318 4
34.709835 7.2020905 4
31.410661 14.549581 4
29.268247 9.6909783 4
33.483907 11.946597 4
28.096578 22.63507 4
29.179143 13.570571 4
26.505839 18.338005 4
33.478968 19.572475 4
32.840915 25.887474 4
29.444153 32.077635 4
29.994968 22.215364 4
30.405401 31.874674 4
30.669964 44.164015 4
30.330274 34.092941 4
32.157719 -7.2150743 4
31.870499 -16.368331 4
30.398465 -5.5331516 4
35.00979 2.2404759 4
40.052685 -9.4446175 4
36.648894 1.5803701 4
31.342647 -6.0782702 4
34.716582 10.555328 4
33.365597 8.6619035 4
34.865094 8.736875 4
30.930006 7.0105519 4
28.682399 8.8361405 4
31.371242 9.8857415 4
33.220895 6.8730807 4
31.738269 13.298602 4
30.780945 12.767313 4
30.796919 15.725949 4
37.040766 20.991503 4
31.430699 16.259132 4
28.811692 31.563257 4
28.513444 20.643378 4
36.779609 24.991813 4
30.071484 20.694536 4
33.750123 33.183164 4
32.933307 26.671425 4
38.818475 -19.650957 4
29.35283 -4.6065451 4
30.951488 9.1978832 4
35.844626 -10.371237 4
26.892887 5.4008519 4
28.410808 6.4326285 4
26.463563 8.7426241 4
32.964986 8.7238007 4
29.226307 10.515772 4
33.820601 7.873924 4
27.859091 14.817703 4
31.953135 8.0319093 4
30.852079 16.548383 4
33.09116 17.225962 4
30.734296 8.3287535 4
31.995961 15.609064 4
28.581405 14.067416 4
34.098012 12.508257 4
31.817964 19.081891 4
30.143028 23.910082 4
37.248964 10.396443 4
29.425634 25.167397 4
29.614022 27.647028 4
29.707313 30.254654 4
32.702776 48.681518 4
36.212982 -14.283465 4
26.314089 -14.874954 4
34.6314 0.033542757 4
35.259371 6.2772634 4
22.780231 -6.4400352 4
26.782124 6.0242618 4
30.851373 3.8963286 4
28.679059 1.5915473 4
36.244825 6.0919516 4
35.497735 4.4291809 4
31.216858 7.469573 4
33.922001 3.0249857 4
34.615461 12.148926 4
31.249046 7.737608 4
34.104098 15.638536 4
37.1949 18.933134 4
34.195119 13.179619 4
31.643293 15.799766 4
32.441144 18.513009 4
36.515459 22.709101 4
31.212345 27.715888 4
34.823456 28.839295 4
36.076224 25.499747 4
31.374707 31.966735 4
33.064704 29.726445 4
27.659898 -11.080283 4
27.176867 -14.99125 4
38.334748 9.62117 4
33.686147 4.2341312 4
32.066908 2.2653637 4
35.792754 9.2307903 4
33.443751 5.9299045 4
36.160862 4.335372 4
34.320361 14.101828 4
40.565904 18.086879 4
35.049976 15.007797 4
34.484834 16.254745 4
32.641916 22.281633 4
39.863048 15.674558 4
33.056052 13.043548 4
32.800948 24.523902 4
31.410219 23.565377 4
35.23909 23.255301 4
35.132054 28.554385 4
35.485361 31.945038 4
32.935575 32.699934 4
32.470432 20.904034 4
28.943889 28.988798 4
36.580381 38.715055 4
28.722331 33.802727 4
30.251293 3.6058279 4
24.167512 -17.317855 4
34.118309 -2.6280677 4
30.8653 -4.96276 4
30.799747 -2.3349777 4
29.405785 6.0068307 4
29.900373 6.7298606 4
35.186347 8.5771627 4
32.122809 11.424756 4
28.188716 10.544856 4
38.570037 12.05809 4
29.645712 14.072015 4
30.947911 11.127759 4
31.433901 14.89798 4
27.960768 18.300378 4
27.533567 15.474539 4
30.111017 19.743495 4
29.948717 23.260971 4
34.412227 29.821546 4
32.195604 24.771168 4
31.919011 27.208778 4
31.246523 28.165309 4
31.900746 34.013112 4
33.40124 28.918709 4
25.960176 37.795381 4
46.181751 -8.181672 4
32.243521 -4.2147181 4
32.852208 -9.657242 4
32.622504 3.7420247 4
35.457466 8.843602 4
26.989639 -10.45722 4
34.412627 8.1589593 4
24.152862 6.1518117 4
34.758507 4.2384715 4
35.401168 5.1414183 4
34.232622 10.444005 4
28.819506 13.733427 4
34.721256 22.745631 4
34.50739 9.8545911 4
35.425446 15.500167 4
32.973594 19.21708 4
35.275908 16.590843 4
31.158922 23.987364 4
36.760641 20.943466 4
29.625578 22.496672 4
30.320695 17.54151 4
26.790483 35.356061 4
34.983886 33.269452 4
32.21142 29.807197 4
43.700122 40.214329 4
30.648677 5.11879 4
32.950011 2.9860368 4
32.695527 -0.38264253 4
34.032051 -13.480328 4
32.573914 -2.8981347 4
29.800632 3.8649995 4
35.39551 3.1587874 4
36.847372 8.4955265 4
34.151775 11.464593 4
34.832054 10.014315 4
31.483625 17.103222 4
32.18557 19.583239 4
29.62957 15.739091 4
29.222168 14.991339 4
37.35777 23.23615 4
37.120105 18.232799 4
31.538344 12.362015 4
32.488599 7.6616907 4
30.38593 14.209622 4
35.475709 19.490713 4
38.537567 25.458149 4
37.44231 29.480509 4
31.797651 22.18424 4
37.621974 33.465043 4
34.010243 31.635303 4
32.611629 -3.8035755 4
23.770604 -7.3993491 4
36.753409 -5.1885017 4
33.689274 11.741916 4
29.459617 2.1307353 4
33.935025 6.774239 4
35.868329 7.7010241 4
38.920884 8.667158 4
35.494023 14.958866 4
39.728492 7.7116443 4
32.304593 12.640919 4
28.616416 11.595543 4
32.70198 17.545496 4
37.050776 11.580514 4
33.850596 18.881847 4
32.454028 19.131716 4
34.428897 21.586166 4
33.196098 28.227131 4
33.969395 21.020299 4
33.408522 26.729577 4
33.264657 23.216711 4
29.124922 25.345034 4
33.045634 31.253949 4
35.720656 33.036559 4
24.229903 35.100536 4
25.75306 -9.7787721 4
32.188035 -2.91627 4
33.105999 -0.89731504 4
26.810314 -1.793552 4
41.460754 4.9880673 4
33.835915 2.6286571 4
38.613873 9.049434 4
35.166791 1.8671048 4
35.306485 7.996789 4
35.203199 12.307032 4
34.110307 16.941816 4
37.200529 14.708601 4
40.811914 11.240167 4
39.291476 10.054326 4
33.146122 18.79849 4
32.78414 18.256144 4
36.366482 14.418758 4
28.447924 22.020664 4
34.210045 19.069494 4
35.289619 24.929577 4
35.427146 27.679856 4
31.07422 20.617661 4
33.459709 23.497236 4
29.935843 31.008993 4
29.444967 33.61402 4
38.27741 -14.330098 4
30.993958 -3.4265866 4
28.536495 3.8757912 4
37.021642 6.3028225 4
35.999327 7.0716221 4
38.754778 5.4363108 4
34.15361 4.8222759 4
30.125314 8.3079301 4
35.443801 11.888067 4
32.794557 9.8235108 4
35.081909 15.362849 4
32.789163 13.47972 4
34.127381 18.83909 4
31.963439 14.890031 4
37.217889 21.215813 4
37.920372 22.1884 4
35.510018 17.879958 4
33.398919 22.523471 4
33.953002 25.213172 4
34.565412 23.42536 4
33.535251 25.666207 4
33.136873 25.080666 4
29.84066 32.161548 4
28.583215 41.546185 4
40.920812 39.700999 4
34.09555 -4.9466736 4
33.716211 0.27802074 4
31.46653 1.2723443 4
28.763505 5.0246061 4
31.275581 3.6885638 4
34.546033 -2.161583 4
37.406753 6.8950525 4
38.52453 11.265131 4
39.44672 9.161138 4
32.357507 9.1070438 4
38.242379 6.6820743 4
33.131961 15.377336 4
32.900817 16.196504 4
31.213364 15.628739 4
32.169562 16.15012 4
51.366804 14.622145 4
35.018738 25.895395 4
34.057855 24.538046 4
35.140136 22.79199 4
42.091818 31.409598 4
35.60232 30.748139 4
33.453577 27.187686 4
36.39186 29.224277 4
33.1078 37.327457 4
33.815291 40.970041 4
34.760411 -9.2687146 4
34.63567 -0.88982741 4
34.166926 4.550553 4
34.212182 3.7398507 4
30.574537 2.4230183 4
38.392165 5.8693877 4
33.800973 7.5638967 4
36.411049 6.9304596 4
34.727733 6.6766063 4
33.624024 5.1891317 4
39.2273 9.4306085 4
36.386554 13.247634 4
28.992652 12.627009 4
36.860689 14.430968 4
40.266786 18.622243 4
36.990446 16.174557 4
39.177215 20.677242 4
36.12893 16.629498 4
35.876773 17.672292 4
37.105487 21.514677 4
38.274529 24.430746 4
32.903958 22.984131 4
34.33342 25.534846 4
38.768787 35.85397 4
34.406121 37.597231 4
37.358361 -0.91545629 4
34.32688 -12.285905 4
35.451664 0.15536564 4
34.295026 0.84376774 4
34.296818 2.0564937 4
34.804192 4.6853086 4
34.49385 4.7271318 4
30.677964 5.8136516 4
36.190639 15.744287 4
36.912936 7.4103686 4
34.357467 15.738292 4
35.890763 12.130185 4
39.559488 15.635827 4
35.568405 17.077833 4
34.721468 17.658883 4
31.568267 18.626019 4
34.40281 17.911642 4
37.795927 20.946648 4
36.365381 24.380944 4
34.899534 26.696553 4
33.306961 26.469569 4
33.379828 29.198172 4
37.185853 20.730925 4
33.744843 34.997205 4
37.278361 33.149839 4
32.849726 -1.5006242 4
37.760375 -0.9134537 4
32.663348 2.8577 4
30.860717 4.4878508 4
34.326811 3.137863 4
38.906898 9.1477454 4
36.87496 13.700922 4
37.655377 12.188048 4
36.086523 9.5713429 4
37.338979 13.779582 4
36.883537 16.450235 4
37.639555 16.705538 4
34.932688 19.584052 4
40.653764 20.555327 4
33.615804 16.206213 4
38.924171 16.091262 4
36.900526 18.335501 4
35.019071 17.753089 4
38.649033 14.670263 4
37.819934 20.532854 4
36.834869 20.578474 4
37.827551 29.731359 4
38.228122 34.757244 4
32.293428 25.846298 4
30.136039 33.529173 4
39.237089 -1.275702 4
35.753082 3.2196128 4
33.622748 -2.3938234 4
36.306816 3.4614922 4
34.286134 5.5856362 4
34.218174 6.375905 4
40.975957 10.295221 4
36.418362 4.6538782 4
34.377995 7.555101 4
35.902924 13.166616 4
32.466344 17.010416 4
37.95268 9.132316 4
36.571048 12.607289 4
37.037706 20.041712 4
37.639139 17.929021 4
37.465438 16.253941 4
34.710045 16.341999 4
35.672749 22.37939 4
36.602864 19.854976 4
34.53267 27.375616 4
34.501929 25.95144 4
35.435951 26.803107 4
36.092063 24.692243 4
29.636678 34.678084 4
34.81183 30.289025 4
33.999544 -1.7030328 4
38.096752 1.9298837 4
35.507752 4.0008533 4
37.225901 1.8404823 4
38.443346 4.2709011 4
37.1501 6.8103464 4
37.400288 8.8640494 4
36.54789 10.806631 4
34.594415 9.597517 4
37.486885 14.096088 4
37.234871 15.680655 4
37.60565 14.77946 4
36.939544 13.020687 4
35.773184 16.887723 4
33.727907 18.034311 4
37.559771 24.178156 4
35.700144 19.876242 4
35.43141 20.432922 4
37.302316 22.277316 4
39.378762 21.093563 4
37.775874 24.530951 4
36.237891 24.107469 4
35.242073 29.383475 4
35.327226 25.38893 4
36.426798 32.576762 4
35.184332 -3.2230599 4
35.557048 1.4923228 4
[...]
POINT_DATA 1250
SCALARS m double
LOOKUP_TABLE default
1
1
1
1
1
1
1
1
1
1
1
1
1
1
1
1
1
1
1
1
1
1
1
1
1
1
1
1
1
1
1
1
1
1
1
1
1
1
1
1
1
1
1
1
1
1
1
1
1
1
1
1
1
1
1
1
1
1
1
1
1
1
1
1
1
1
1
1
1
1
1
1
1
1
1
1
1
1
1
1
1
1
1
1
1
1
1
1
1
1
1
1
1
1
1
1
1
1
1
1
1
1
1
1
1
1
1
1
1
1
1
1
1
1
1
1
1
1
1
1
1
1
1
1
1
1
1
1
1
1
1
1
1
1
1
1
1
1
1
1
1
1
1
1
1
1
1
1
1
1
1
1
1
1
1
1
1
1
1
1
1
1
1
1
1
1
1
1
1
1
1
1
1
1
1
1
1
1
1
1
1
1
1
1
1
1
1
1
1
1
1
1
1
1
1
1
1
1
1
1
1
1
1
1
1
1
1
1
1
1
1
1
1
1
1
1
1
1
1
1
1
1
1
1
1
1
1
1
1
1
1
1
1
1
1
1
1
1
1
1
1
1
1
1
1
1
1
1
1
1
1
1
1
1
1
1
1
1
1
1
1
1
1
1
1
1
1
1
1
1
1
1
1
1
1
1
1
1
1
1
1
1
1
1
1
1
1
1
1
1
1
1
1
1
1
1
1
1
1
1
1
1
1
1
1
1
1
1
1
1
1
1
1
1
1
1
1
1
1
1
1
1
1
1
1
1
1
1
1
1
1
1
1
1
1
1
1
1
1
1
1
1
1
1
1
1
1
1
1
1
1
1
1
1
1
1
1
1
1
1
1
1
1
1
1
1
1
1
1
1
1
1
1
1
1
1
1
1
1
1
1
1
1
1
1
1
1
1
1
1
1
1
1
1
1
1
1
1
1
1
1
1
1
1
1
1
1
1
1
1
1
1
1
1
1
1
1
1
1
1
1
1
1
1
1
1
1
1
1
1
1
1
1
1
1
1
1
1
1
1
1
1
1
1
1
1
1
1
1
1
1
1
1
1
1
1
1
1
1
1
1
1
1
1
1
1
1
1
1
1
1
1
1
1
1
1
1
1
1
1
1
1
1
1
1
1
1
1
1
1
1
1
1
1
1
1
1
1
1
1
1
1
1
1
1
1
1
1
1
1
1
1
1
1
1
1
1
1
1
1
1
1
1
1
1
1
1
1
1
1
1
1
1
1
1
1
1
1
1
1
1
1
1
1
1
1
1
1
1
1
1
1
1
1
1
1
1
1
1
1
1
1
1
1
1
1
1
1
1
1
1
1
1
1
1
1
1
1
1
1
1
1
1
1
1
1
1
1
1
1
1
1
1
1
1
1
1
1
1
1
1
1
1
1
1
1
1
1
1
1
1
1
1
1
1
1
1
1
1
1
1
1
1
1
1
1
1
1
1
1
1
1
1
1
1
1
1
1
1
1
1
1
1
1
1
1
1
1
1
1
1
1
1
1
1
1
1
1
1
1
1
1
1
1
1
1
1
1
1
1
1
1
1
1
1
1
1
1
1
1
1
1
1
1
1
1
1
1
1
1
1
1
1
1
1
1
1
1
1
1
1
1
1
1
1
1
1
1
1
1
1
1
1
1
1
1
1
1
1
1
1
1
1
1
1
1
1
1
1
1
1
1
1
1
1
1
1
1
1
1
1
1
1
1
1
1
1
1
1
1
1
1
1
1
1
1
1
1
1
1
1
1
1
1
1
1
1
1
1
1
1
1
1
1
1
1
1
1
1
1
1
1
1
1
1
1
1
1
1
1
1
1
1
1
1
1
1
1
1
1
1
1
1
1
1
1
1
1
1
1
1
1
1
1
1
1
1
1
1
1
1
1
1
1
1
1
1
1
1
1
1
1
1
1
1
1
1
1
1
1
1
1
1
1
1
1
1
1
1
1
1
1
1
1
1
1
1
1
1
1
1
1
1
1
1
1
1
1
1
1
1
1
1
1
1
1
1
1
1
1
1
1
1
1
1
1
1
1
1
1
1
1
1
1
1
1
1
1
1
1
1
1
1
1
1
1
1
1
1
1
1
1
1
1
1
1
1
1
1
1
1
1
1
1
1
1
1
1
1
1
1
1
1
1
1
1
1
1
1
1
1
1
1
1
1
1
1
1
1
1
1
1
1
1
1
1
1
1
1
1
1
1
1
1
1
1
1
1
1
1
1
1
1
1
1
1
1
1
1
1
1
1
1
1
1
1
1
1
1
1
1
1
1
1
1
1
1
1
1
1
1
1
1
1
1
1
1
1
1
1
1
1
1
1
1
1
1
1
1
1
1
1
1
1
1
1
1
1
1
1
1
1
1
1
1
1
1
1
1
1
1
1
1
1
1
1
1
1
1
1
1
1
1
1
1
1
1
1
1
1
1
1
1
1
1
1
1
1
1
1
1
1
1
1
1
1
1
1
1
1
1
1
1
1
1
1
1
1
1
1
1
1
1
1
1
1
1
1
1
1
1
1
1
1
1
1
1
1
1
1
1
1
1
1
1
1
1
1
1
1
1
1
1
1
1
1
1
1
1
1
1
1
1
1
1
1
1
1
1
1
1
1
1
1
1
1
1
1
1
1
1
1
1
1
1
1
1
1
1
1
1
1
1
1
1
1
1
1
1
1
1
1
1
1
1
1
1
1
1
1
1
1
1
1
1
1
1
1
1
1
1
1
1
1
1
1
1
1
1
1
1
1
1
1
1
1
1
1
1
1
1
1
1
1
1
1
1
1
1
1
1
1
1
1
1
1
1
1
1
1
1
1
1
1
1
1
1
1
1
1
1
1
1
1
1
1
1
1
1
1
VECTORS v double
1.6616386 -8.8869381 0
3.6595081 -10.044355 0
-1.2499266 -16.338686 0
17.272203 -0.67429025 0
16.859863 -0.014840781 0
-5.6157011 -0.0022214109 0
-2.1212958 -23.013165 0
-1.0850454 -0.93237845 0
-3.0551154 -6.8230082 0
-8.0797531 -4.2674401 0
-0.17384262 -1.7742629 0
6.5895266 11.11737 0
2.8649265 -6.4252726 0
1.6100797 -13.74728 0
2.6383611 11.650362 0
5.9249827 -8.0264344 0
4.070844 5.5456906 0
3.4051079 -6.6947136 0
-3.7203554 7.4036114 0
-4.6853055 0.8493106 0
5.9661609 -8.0312825 0
-5.3558828 5.6243506 0
11.550286 -3.0062935 0
0.20851595 22.962113 0
1.7494855 11.114152 0
8.8399697 -9.0826405 0
-0.25243291 -9.6385239 0
-8.920054 -14.320249 0
-8.6736234 -7.9336608 0
-2.4839906 -10.803538 0
-7.3896714 4.3041618 0
-7.5740461 -7.41258 0
23.09996 -27.422773 0
1.0294916 -4.2393093 0
-11.170345 -2.9753407 0
-13.258965 1.9972036 0
-3.7646959 -4.9955417 0
7.8721091 5.872587 0
5.2563897 -5.8902897 0
7.1304345 1.7754996 0
26.324913 -19.934124 0
8.7259713 5.2739278 0
15.675713 2.0789223 0
-5.2438692 7.02538 0
-5.1244913 6.8899231 0
0.55120794 -1.0564135 0
1.8734281 12.816109 0
-4.1659183 -0.074041041 0
1.4688879 13.66397 0
2.7036384 11.989849 0
3.2921969 -9.9576192 0
3.1086729 -15.900927 0
1.9881627 -19.921307 0
7.5266399 -0.62426479 0
10.755195 -12.551497 0
-0.68138088 -5.9838017 0
3.7253376 -12.726874 0
13.704132 -1.6952498 0
3.4554423 -9.6609006 0
7.4317255 -13.962655 0
8.6706897 2.3601335 0
-0.45313856 -16.678964 0
1.4596961 -9.0550237 0
2.2741176 -10.584666 0
0.15389978 8.5236792 0
-0.90344048 0.88314037 0
0.4957778 -2.4874185 0
6.3140605 -4.7885846 0
1.618799 -2.6632476 0
5.7086967 4.8796122 0
0.056845081 -18.038275 0
1.4127219 15.013046 0
-3.829039 -3.7869745 0
-3.3989322 7.7007985 0
7.6190516 -1.2657034 0
3.9466542 -13.879275 0
-3.2968095 -4.9238336 0
-2.5655088 5.5691054 0
5.1165506 -14.873565 0
2.7240968 -1.99154 0
-12.74783 -0.93748792 0
-0.91512439 -0.89885344 0
5.6666451 -11.221399 0
-0.59233675 -7.5614238 0
4.0924861 7.4677161 0
-7.9755117 11.99572 0
-1.5762807 3.5607172 0
13.90642 -3.1540322 0
5.9172516 -10.155987 0
-3.8775759 11.644608 0
-5.5181285 -11.098744 0
-2.8228036 0.45878579 0
-1.5449098 1.0206263 0
-7.7619316 -5.0160991 0
10.134891 11.486063 0
4.5032985 -7.0815356 0
12.643174 -1.1388257 0
5.1351633 2.6415288 0
-0.0072158843 3.9066779 0
0.47110466 14.494984 0
3.3724396 -12.746328 0
-5.535985 -14.739064 0
-1.59943 -13.469481 0
1.8550421 -3.7701326 0
-8.2380275 -8.4697984 0
0.11019122 -4.4314346 0
-16.185893 3.5098971 0
2.6705841 -14.377357 0
0.22397682 -7.4621882 0
-1.9117694 2.8419403 0
8.7928453 -6.9936772 0
-7.194992 -11.857175 0
7.9748064 -3.0332192 0
-2.0316581 -14.558937 0
-4.9790335 -1.2656388 0
-1.1383054 6.2285275 0
11.511284 -2.8319789 0
9.5479819 -1.3911119 0
1.0433506 -5.0664594 0
3.0104312 6.1991576 0
-5.2753084 1.9786592 0
2.5710226 8.5628918 0
-1.6237672 0.54092066 0
-2.4344522 9.5560605 0
10.171605 9.4266079 0
-2.3612258 -9.0018754 0
0.064492906 -22.510376 0
-5.8117673 6.9007205 0
-5.5505839 -12.333961 0
1.5554521 0.053300991 0
-9.5388591 -4.1812342 0
-1.1002259 -7.4032219 0
-1.9221339 -13.868868 0
-3.0076968 10.821942 0
13.281618 -0.77146298 0
-0.10093718 -4.485966 0
-0.24046206 0.69750137 0
3.724406 10.692897 0
0.95131334 -2.3006142 0
20.484674 -1.6628078 0
-4.8976503 -2.0093206 0
3.4759657 15.007538 0
6.985212 5.2714367 0
-0.10249126 10.283657 0
-6.6925829 6.0252571 0
6.9285181 7.1436356 0
0.39571749 9.2416669 0
-2.1794213 -3.90962 0
2.7835812 9.3004918 0
0.61045437 13.149403 0
-5.288189 -9.1878336 0
-7.1221573 -15.01762 0
-5.8474509 -18.971423 0
2.5519176 -11.685575 0
5.6432835 -14.804244 0
-4.7591092 3.4468069 0
-4.8972177 0.55450567 0
18.009651 -7.4103475 0
4.0517931 7.7253328 0
7.4391925 -1.8532212 0
-8.6235086 -4.9466757 0
-10.557809 1.8532088 0
-0.16517219 -0.84207085 0
0.41511125 -24.905169 0
-8.9084448 -2.47572 0
-1.0920878 -1.2390906 0
5.8082636 -5.3448958 0
12.415516 1.7907775 0
-2.1219381 11.286604 0
-3.3830651 14.630145 0
5.0867129 9.9143022 0
-11.334981 10.919904 0
6.4120444 17.557055 0
-2.7970896 19.986034 0
-2.2836943 10.291076 0
7.9152496 -6.5258364 0
9.6914698 -23.000234 0
0.10043094 -13.988577 0
3.1769501 -13.459135 0
3.5010133 -0.59482944 0
-4.6980672 -16.490353 0
-8.6734422 -5.5005879 0
-3.0822381 18.759937 0
-4.923947 -9.1022854 0
-0.34741063 -6.7430362 0
-8.382161 -11.307363 0
3.9653615 7.7250232 0
-3.0848145 6.0578331 0
-2.2091001 10.002137 0
-1.8452389 4.1889575 0
4.7226719 -1.2969635 0
-15.280147 11.99558 0
1.2337487 8.2554969 0
-3.6023192 7.0720354 0
-1.9646043 -0.56510089 0
-15.521128 -10.142707 0
-7.8392939 10.758596 0
4.3052385 9.9597423 0
-6.4073776 0.082543537 0
6.2745354 8.821453 0
-0.57520238 3.2222865 0
0.89754883 0.90447646 0
1.0522224 -7.8626843 0
0.73139483 -25.594084 0
8.9249562 -18.883791 0
-3.1715082 -3.3166062 0
8.1622296 0.88655028 0
10.438738 -1.5905501 0
-3.9477105 -3.3290338 0
-12.580717 -3.7024608 0
1.3978468 -0.13547138 0
-1.8773356 1.5399317 0
0.31327725 3.7569857 0
-0.57990788 8.4524272 0
7.3402382 2.3394845 0
-2.7009606 16.879357 0
-0.23119894 -2.710224 0
-12.462333 -4.0722133 0
0.012044073 12.780757 0
-0.81700475 1.0074188 0
8.517598 -2.2450214 0
-0.30344686 2.0481161 0
-8.915837 2.5825197 0
6.2457185 6.8617609 0
2.6443879 12.412421 0
1.0625595 -19.792116 0
-9.9740571 -15.061119 0
3.8616371 -18.09393 0
-5.9578047 -0.60841086 0
5.9000371 -11.332181 0
7.7447716 8.4777437 0
-0.97645915 1.1328519 0
0.38454182 -7.3775288 0
0.060756008 6.9327608 0
-5.5995735 5.6794819 0
-16.411639 2.9669886 0
-12.274192 -4.5886129 0
-11.05794 7.5503658 0
-12.919332 -3.2950466 0
11.599403 7.5212557 0
-0.61186204 8.8866398 0
-7.4960293 12.76972 0
4.9254178 10.153476 0
2.9252748 -2.7769995 0
-12.336493 0.5060918 0
6.9753721 -9.3297878 0
-11.787247 2.6404583 0
4.2999698 11.011843 0
5.6441348 7.7042353 0
-5.9264766 10.852618 0
-1.3917648 -9.9783078 0
-4.6697925 -5.62133 0
4.2775801 -5.7053791 0
-4.2092293 -8.4629423 0
4.9573804 0.017625278 0
-3.4716157 -3.2847829 0
21.067201 4.490675 0
0.16437085 -3.0191987 0
-6.404238 -1.8041655 0
-5.0034783 5.8511685 0
-7.8855284 -5.4300141 0
2.7982215 -3.8905675 0
8.5576409 3.9277017 0
1.7161 8.2918561 0
5.4924377 6.5855949 0
8.0977988 -0.36694151 0
2.1367869 -0.97951177 0
5.5336075 4.2492346 0
-0.73465294 5.5939167 0
0.8565097 -0.91165488 0
-4.9337393 2.0416125 0
-7.113186 -6.3402 0
-5.1585538 1.0573254 0
4.3599313 10.649231 0
0.63169844 1.0096075 0
0.8313256 -12.772029 0
7.9892053 -2.1549251 0
-6.3455633 0.38892104 0
-5.6442829 0.75474915 0
0.68338751 4.6667731 0
0.32804025 -8.0113342 0
-15.227512 -9.459227 0
-6.5753298 -4.2737499 0
-2.2089642 0.38575905 0
6.3577101 -2.9527219 0
-7.0037739 3.249791 0
0.47295678 -2.5056986 0
0.22901625 -4.6835683 0
4.3781606 5.1415644 0
-8.3054827 -1.4659873 0
1.4880549 7.7191755 0
6.5988122 -8.3726592 0
-0.98182192 3.0679779 0
-16.041165 7.2863934 0
-1.7230417 0.37889012 0
-0.50855045 0.83305915 0
-5.7772567 6.3869259 0
-1.0882785 0.23907276 0
-5.9530358 8.3445317 0
3.3742083 9.8830455 0
4.3003868 -8.0793289 0
-2.9266752 -10.518007 0
6.9123182 1.0546502 0
-3.6304429 -2.0538526 0
-2.2468037 -4.7322755 0
-0.86093495 -6.104052 0
-8.306036 -8.6959183 0
-1.9983451 2.6718213 0
7.6808819 -2.1806045 0
-4.1396988 -4.9369404 0
1.5421678 -21.589113 0
-6.839691 6.6195948 0
-5.0727079 1.0690651 0
-7.2860729 7.8768458 0
-6.463035 -5.778943 0
11.979384 -7.2830737 0
-2.5574247 9.9173208 0
-3.3429288 4.5445053 0
6.2974553 -8.3648992 0
15.697056 5.9561084 0
-0.55581218 5.070118 0
-13.261465 10.130434 0
-1.2459508 13.034184 0
-4.5506803 9.4722952 0
4.6945634 19.014379 0
0.34336209 -14.635442 0
6.2530701 2.1116355 0
-13.286026 6.9874302 0
6.0332752 -2.9800188 0
-2.1791485 4.2419254 0
-3.1484114 1.5803819 0
-4.3017198 -9.6267503 0
-2.448752 -2.1327667 0
3.2912977 4.4769155 0
1.7311771 -12.971497 0
4.7601401 -1.586963 0
-4.8845475 -6.8023796 0
-2.0389033 -17.788192 0
1.8833382 12.642813 0
5.5999814 8.3604498 0
9.0849773 7.2134939 0
16.471882 12.781853 0
-3.3710174 -11.966947 0
4.5941029 5.0660071 0
4.1030241 0.8467351 0
9.6788639 6.958077 0
-5.7687223 -1.7123669 0
23.96829 -4.7822155 0
0.92464025 11.821148 0
5.9414293 17.889768 0
-2.5010554 -13.207939 0
2.2112982 -15.76158 0
11.287522 -2.3410618 0
1.7346219 -9.6112333 0
-0.6878889 -6.9347896 0
-1.3295082 -1.4975009 0
-6.5325961 0.94493204 0
-5.3750581 -8.9462819 0
6.0811501 7.2739608 0
-0.78947568 -3.6428408 0
13.008537 -5.9517409 0
1.7594703 -3.356488 0
-0.69018827 -2.470323 0
2.2437532 -0.011663184 0
16.049888 13.909435 0
-7.7889593 -3.0094914 0
-5.180088 5.6528695 0
2.1636014 7.8011713 0
7.4227501 -2.5505984 0
0.81452092 0.18395672 0
-5.9564153 4.7047723 0
5.2777565 -2.6790046 0
1.1059776 0.50474055 0
-4.0323185 9.2131525 0
-1.2138888 11.453012 0
-7.0857659 -8.7611664 0
6.1148286 -6.9812056 0
-6.4816906 3.6683391 0
-0.95926977 -2.22938 0
-3.0046366 -9.8919379 0
6.7454987 -7.6387775 0
-1.8295464 14.996647 0
-3.2911841 -10.355523 0
0.73690441 -9.2592057 0
-13.039279 6.2489811 0
-0.69120125 2.2936479 0
6.3017481 6.3445253 0
2.5638681 2.6406188 0
19.504633 14.480331 0
-6.4025517 -5.0815286 0
2.0024825 -3.8477787 0
-3.1016674 -8.7701106 0
-6.2896177 -1.9132441 0
-0.34838216 5.2788875 0
1.5559502 -2.2188735 0
-2.5755857 -6.5219438 0
3.0999887 5.8100113 0
-0.28267167 12.872138 0
-4.5450407 8.3679633 0
-1.1728936 3.6288828 0
8.0568115 -6.6378223 0
-5.6142003 5.4307483 0
-2.3481809 -12.442841 0
-5.0337804 -3.1868901 0
-3.7916339 0.16841721 0
-7.8815919 -14.627404 0
3.368418 -1.5255381 0
-5.1993767 0.95064507 0
-1.4565977 4.4060543 0
-4.3535973 2.4193437 0
-11.448192 -1.0159909 0
14.454905 -7.5211919 0
6.9455524 -1.0782111 0
-11.683367 4.6678833 0
0.43396442 3.0350565 0
4.821867 5.355244 0
-2.0900303 -8.1907647 0
0.26259442 8.1007559 0
-7.9635774 -7.5530014 0
-0.46228569 15.446176 0
-4.4738109 3.8694047 0
1.599018 14.405298 0
-6.5788507 5.3566155 0
-10.356668 11.314086 0
-2.9805656 8.1327439 0
-13.252583 -11.420611 0
1.7981227 2.5705916 0
-2.8848033 4.7555901 0
5.5217009 3.8338603 0
-9.3224875 -6.5020278 0
0.72308552 8.2261455 0
-1.288686 6.2499839 0
0.11514225 6.248587 0
1.9202116 -6.093084 0
-0.33314411 1.6871671 0
-13.167172 -0.57487725 0
-1.1730752 -2.1070444 0
-11.18971 -8.0283172 0
-7.5969603 -9.7707738 0
-6.1524691 9.0236367 0
-4.230255 11.38667 0
-19.689706 1.9560026 0
-7.6995736 -0.78327244 0
0.36320436 0.19993688 0
-4.4328025 -1.8757829 0
1.2465974 1.7352629 0
-8.9573207 6.3866753 0
-7.9854735 9.7440077 0
10.656308 16.403071 0
-0.47247546 9.9825205 0
-5.7571197 -8.9724637 0
5.2973864 -17.349194 0
1.5362165 -12.277107 0
0.49006861 0.64370529 0
0.67113119 6.4603578 0
-0.89561137 3.5479171 0
-1.5233815 3.7638046 0
5.058322 -4.6571352 0
7.5979878 -6.3691229 0
8.1326586 0.76736757 0
-4.5950848 3.1765259 0
11.640066 9.8721998 0
6.7396504 -2.8316762 0
7.1107428 0.41542131 0
5.1332689 4.9742395 0
-8.8616955 13.376926 0
-10.991784 4.8958238 0
0.66165277 6.5637169 0
-6.6059693 0.095295008 0
-0.65285995 -8.1057516 0
-14.835708 8.3647805 0
-0.14878968 1.0183746 0
-6.2039811 -2.2790977 0
-4.1955688 1.1292709 0
9.2772318 4.7365368 0
5.3731939 -11.853174 0
1.7621163 -8.0731976 0
-0.32316323 2.0435537 0
-9.4176427 -4.8584839 0
-6.4997587 2.3101403 0
3.8007191 -4.2459253 0
-11.839567 -8.3298346 0
-3.9962934 -3.872816 0
9.8229658 -7.3729685 0
-12.427382 -10.366058 0
-2.4739273 6.2639835 0
-14.765778 -2.3966328 0
-2.7654877 7.9546649 0
10.80599 -4.1149735 0
0.15462343 -8.1731662 0
0.4832192 4.8515456 0
-1.3638913 -1.635209 0
-1.8551328 2.2547159 0
-7.5646774 4.2973464 0
-8.5983373 0.11884871 0
-8.6453509 -2.0458395 0
-6.8957603 -4.0041231 0
-8.4074084 3.1819252 0
-4.498559 4.1513105 0
-2.2417327 9.6846263 0
0.17147199 -1.1708108 0
2.0284697 3.3139324 0
-3.8833938 -8.3553178 0
-0.64761771 -11.068807 0
2.621541 1.8686077 0
13.966494 -11.447753 0
-0.080323213 12.762402 0
-5.2301398 4.2906569 0
2.968297 -5.1247403 0
4.6635741 4.860769 0
-3.8069054 6.4829082 0
-1.7003736 -4.3281514 0
-9.0854452 -5.8575244 0
-8.8860785 -6.036539 0
1.5508863 -0.20430773 0
-3.71637 1.8190428 0
-7.3476154 12.160913 0
-0.28779335 -2.4401184 0
4.9334783 7.3944901 0
3.0081442 8.3094295 0
-6.5445623 1.5877023 0
1.1346096 5.2008109 0
-5.9350976 0.48682054 0
-6.2281815 5.9417046 0
-2.2645684 6.5430102 0
-6.8886574 -15.786301 0
-4.6487749 3.664501 0
0.97779916 1.6054976 0
-1.7755696 7.0013572 0
-7.011851 -8.6950678 0
-8.377452 4.3894042 0
-5.1937836 -3.9911099 0
-2.8762925 -10.937988 0
8.6703299 7.1163686 0
-10.016849 0.80138904 0
-3.0147016 1.3252348 0
-1.5549627 -1.1628643 0
-2.51685 1.6831994 0
18.702328 -5.4323919 0
11.002124 0.56549066 0
-5.909728 -4.6678437 0
9.2415029 -11.629298 0
4.8336605 9.5016664 0
-7.8323191 5.2845943 0
-2.0360196 -0.7674286 0
-11.158003 -4.3893938 0
-11.890679 1.0056416 0
-7.750413 -4.5606693 0
-12.682821 2.9630733 0
-2.2093499 -2.9382886 0
-6.6937295 -8.6513772 0
-9.9763562 -0.18445972 0
7.0686634 -7.4963315 0
-10.6603 -0.97806101 0
-12.972588 -4.8495914 0
-6.4579161 -1.6204365 0
3.2254633 4.606661 0
2.0880298 -2.4149081 0
8.0674446 4.21811 0
8.6641229 5.0936716 0
-7.3783507 -11.294338 0
3.9782138 -4.0901147 0
3.4904628 10.046526 0
6.646107 3.8853112 0
-4.6469164 1.838052 0
-1.8884983 1.5981992 0
4.871667 8.5509903 0
-9.8252269 4.7407797 0
-9.9268728 5.9245096 0
6.1581678 13.284854 0
1.3842453 -3.4110536 0
6.6792298 14.074957 0
-8.8858676 7.8520638 0
-9.9488244 0.20543477 0
-10.013961 -0.062971165 0
-10.006619 0.037074703 0
-12.157089 -2.3916775 0
-10.034724 -0.010806724 0
8.7888659 -7.1707697 0
6.5886007 0.032658013 0
8.4465451 -11.912449 0
-10.081737 0.28188726 0
2.2736706 4.5537082 0
-22.742875 -12.727188 0
4.0479985 1.6882757 0
5.3309754 2.9408515 0
13.279354 4.7758413 0
-8.3154767 -5.3491226 0
-5.7998367 2.2359388 0
4.6376706 0.79769741 0
3.0176733 8.4946014 0
-3.1473286 4.9066475 0
8.7287843 -11.171993 0
-6.0339677 -6.23431 0
-13.400156 1.3406694 0
-5.5821449 5.7228527 0
-10.018069 -0.0034297189 0
-4.7770395 3.8706375 0
0.65803028 6.7548815 0
-9.9999609 -0.019525785 0
-13.115459 -10.977981 0
-5.978853 -2.3766937 0
-11.301932 -0.27865 0
-9.752989 -0.0056382184 0
-10.02484 -0.017448656 0
-15.332446 -12.163748 0
0.61841064 -4.417667 0
7.9118872 -13.720204 0
-11.733585 -1.3609161 0
-5.4228603 -15.003287 0
5.1839783 -12.147203 0
0.35083133 -1.5608252 0
6.1671575 -0.098532985 0
2.2915972 -2.8121041 0
-3.2716024 10.329559 0
-2.220258 -3.1096511 0
-0.0850791 -3.3319194 0
-6.6820529 -4.9391076 0
-1.0545983 0.09999877 0
-12.287904 3.9464401 0
-9.5360251 -0.6021716 0
-10.002543 -0.01668697 0
-10.029391 0.040971772 0
-3.3372047 -8.1408735 0
-10.000231 -0.036052168 0
9.3664052 -3.8409628 0
-14.596915 -4.8591843 0
5.7356552 -17.961764 0
6.1168175 -10.772924 0
2.3930329 -7.1319315 0
5.0159102 -5.2133026 0
-5.6317476 8.5214679 0
-1.9094161 -4.6952707 0
14.264305 -3.6223519 0
-4.5405954 -5.4854249 0
0.59189073 0.376587 0
-9.2505737 4.8780351 0
-0.52124383 8.5469275 0
-11.83155 10.382762 0
4.1950108 3.1923997 0
-8.8076358 5.1355749 0
-1.1143563 9.9089021 0
-5.8096747 8.0456183 0
-6.1439736 14.92839 0
1.838935 13.78207 0
-10.776584 11.07671 0
3.3207891 8.3931843 0
619808.48 -383949.33 0
-2.6282259 22.954801 0
-4.4983402 10.081679 0
-1.2978597 -13.925275 0
-1.6327546 -0.0036517897 0
3.1106282 3.4414591 0
0.6569802 -25.560188 0
-4.2721697 -1.1555949 0
-5.4825207 -13.353406 0
7.5623833 -2.4246421 0
4.0262025 -3.7871244 0
1.998623 1.6710136 0
-12.322935 -0.47309732 0
-4.0848323 3.2598872 0
-5.6520438 -3.4011692 0
5.2843546 -2.1920672 0
-9.9964816 3.3270805 0
8.9286618 9.6189126 0
0.79979356 3.5822646 0
-6.7339775 5.7865275 0
1.1098686 -2.3132407 0
18.340984 8.6125144 0
-7.4441346 12.480299 0
-3.2846689 11.806802 0
-5.1888576 1.8289841 0
1.7482736 3.6758938 0
-2.8009423 8.3917638 0
-1.471919 21.744382 0
8.2354312 -6.0208538 0
-1.2685364 -7.6613179 0
2.3083147 -7.4635058 0
1.373 -10.911583 0
6.1952693 -9.7873371 0
8.1705331 0.49572256 0
-1.2424664 -3.6246886 0
2.3980437 -10.422241 0
-3.2718467 13.354442 0
-3.2094139 1.7669035 0
17.401282 -2.746426 0
13.523228 7.8203268 0
0.94080211 4.0883287 0
-0.45284896 -2.6686079 0
4.5588507 -7.0466735 0
-0.47436117 13.367589 0
9.2390837 -1.1418862 0
10.994833 6.7838343 0
16.238058 8.647074 0
0.90923982 -3.0734502 0
4.2347512 20.676457 0
-2.2939717 11.520451 0
-0.40725453 9.7894453 0
-6.5873094 10.469606 0
6.9548108 1.8258887 0
-6.5486092 -6.7367915 0
-1.9603258 -10.561261 0
-5.8773933 -7.9362551 0
2.3273826 4.1840199 0
6.1780286 -9.824418 0
6.0561149 -8.489153 0
16.467746 0.12775106 0
2.9790508 -0.52978047 0
-2.9589 -4.7346371 0
6.2015339 -12.632948 0
3.8387514 4.7915169 0
-2.6607111 -2.7072336 0
-1.4785831 -13.721317 0
4.5500291 -4.9928726 0
-6.3508223 7.3939374 0
-8.6020461 -12.081722 0
13.679116 -25.889175 0
0.67304675 4.2342831 0
11.347433 -4.2907618 0
0.38464542 -3.4494746 0
-0.93575564 -3.0102971 0
-2.5504742 5.0904969 0
7.4630162 12.624619 0
-2.0849944 -2.4463657 0
7.0375438 8.2927338 0
9.1769713 -9.2231842 0
-1.0890576 -8.4721132 0
-2.4560379 0.097780461 0
12.195611 -1.0025771 0
7.9902514 -29.425171 0
1.2015236 -4.3180526 0
-3.0307773 -8.6094065 0
-2.7207598 -12.884441 0
-9.6989582 -7.078038 0
9.2485258 -11.185991 0
2.8684659 -2.7615259 0
-10.780312 1.2109896 0
-2.650501 -6.9987054 0
3.7711882 -3.7566138 0
-616227.85 387734.05 0
6.7966245 1.8899517 0
6.0406078 6.3251536 0
5.5994167 8.4871498 0
-6.2829613 10.325193 0
9.0245316 10.619877 0
0.49631108 11.321152 0
1.3627668 23.701089 0
-0.22973376 16.782544 0
4.4689529 16.236771 0
0.87048071 -3.4679881 0
5.538823 -15.659262 0
1.3489831 -13.303234 0
-3.8602375 -12.919812 0