# vtk DataFile Version 4.0
hesp visualization file
ASCII
DATASET UNSTRUCTURED_GRID
POINTS 1250 double
27.518907 -4.1170652 4
27.397054 -2.5336667 4
31.360104 -1.8571993 4
27.889789 3.8574338 4
30.183387 6.1545324 4
33.003908 4.7505775 4
32.853023 1.2939931 4
37.058327 11.378053 4
29.499513 12.757392 4
28.484199 8.5653257 4
34.292951 11.426647 4
30.601861 10.917055 4
30.066666 13.078354 4
32.752391 13.955705 4
28.657577 18.927946 4
33.456022 14.546849 4
28.747595 24.003022 4
31.352712 20.897872 4
29.662837 21.12137 4
30.744855 29.572788 4
30.206191 23.763345 4
31.754119 25.521508 4
30.651505 20.942075 4
30.734096 42.059076 4
30.480666 36.090291 4
40.854905 -9.2200287 4
26.603927 -1.5550228 4
26.444096 -6.0256546 4
29.813699 3.5002576 4
28.307715 6.102824 4
28.452048 3.0976942 4
27.801827 1.3001183 4
23.399274 4.2995246 4
28.006918 4.2901594 4
27.966773 6.6853048 4
27.933771 10.93283 4
33.674967 11.363534 4
28.997607 17.17188 4
27.638329 11.90585 4
33.855204 12.032989 4
27.438895 22.743477 4
29.258452 14.23711 4
26.108975 18.850883 4
34.898156 18.526163 4
32.689848 23.773884 4
28.778481 29.34959 4
30.362765 20.153843 4
28.771566 31.334574 4
30.12648 39.10834 4
30.733816 32.383875 4
29.680172 -2.8049227 4
30.72029 -10.484985 4
29.295779 -1.580742 4
33.975575 3.8944861 4
36.073252 -4.8005734 4
33.516165 5.1846636 4
29.950452 -1.3754614 4
34.744906 9.8030293 4
33.71412 11.799712 4
32.570246 11.089347 4
29.911991 8.4730338 4
30.69125 10.074489 4
32.182005 12.290603 4
33.666673 8.9441017 4
33.079728 13.157653 4
32.570072 11.340742 4
31.377715 15.895883 4
36.281329 20.560415 4
30.079948 16.598351 4
28.707563 27.774757 4
27.898856 20.108705 4
36.650798 21.853115 4
30.636862 19.040962 4
34.692721 30.808364 4
32.059193 26.131768 4
37.358213 -14.515625 4
30.589596 -2.7688453 4
31.686926 7.5839167 4
33.957137 -4.8750378 4
25.882796 6.4313734 4
30.575361 9.4121962 4
26.283389 10.305625 4
31.657695 11.044727 4
28.832858 12.606562 4
31.415132 9.7677641 4
29.872051 14.773126 4
32.185476 9.1198429 4
30.01561 15.809029 4
32.397545 18.78881 4
31.871253 13.115109 4
33.350741 17.595697 4
29.38068 16.216709 4
32.906065 13.658551 4
31.93381 20.176528 4
30.147348 19.9419 4
36.217355 15.438352 4
29.679053 23.539809 4
29.299665 26.19885 4
30.207093 27.519504 4
32.52846 43.318375 4
34.965181 -9.5673239 4
28.369211 -9.4166769 4
35.687432 3.4967942 4
33.097409 5.7535658 4
25.720962 -3.2303803 4
28.02098 7.386776 4
31.956765 5.8044289 4
29.099867 2.6121554 4
35.008491 8.1203391 4
34.911164 4.9826267 4
32.374304 7.6604729 4
33.532585 6.0624298 4
34.487037 13.065311 4
30.864088 9.9128077 4
34.501949 13.721093 4
37.791239 18.454085 4
31.988636 17.571229 4
29.887248 18.979789 4
31.113691 18.539805 4
35.657164 19.173108 4
32.228902 26.751119 4
33.926384 25.637718 4
36.129077 24.692186 4
32.361468 28.463726 4
30.223056 28.061237 4
28.53328 -7.7493219 4
27.143823 -6.6674234 4
35.280401 8.2937668 4
36.084366 5.956052 4
31.661633 2.2093241 4
32.024314 10.446088 4
31.459489 8.5181907 4
36.069918 8.0889271 4
34.923357 10.593551 4
37.123918 16.283628 4
34.566281 14.77601 4
36.659582 15.239846 4
31.307299 20.50048 4
38.788171 16.666085 4
30.175873 13.672703 4
33.318613 24.367554 4
33.152838 19.137149 4
33.689357 23.251868 4
34.862232 26.372287 4
36.19062 28.54276 4
31.666929 30.441845 4
32.809665 20.324293 4
30.926963 28.935583 4
35.550468 35.273911 4
25.257008 29.796328 4
31.526095 3.8910566 4
26.802711 -11.761335 4
35.3092 2.736552 4
31.38423 -1.161622 4
31.12943 0.63892262 4
28.900381 6.9422483 4
31.094528 5.81047 4
32.567852 9.3263718 4
30.739349 10.613533 4
28.768004 10.942686 4
34.818642 11.596007 4
30.160419 13.38482 4
31.233393 11.649109 4
34.483109 16.670748 4
31.556031 15.375135 4
28.637111 16.274328 4
30.035491 19.659874 4
30.387388 20.906382 4
33.788115 26.078657 4
32.057588 21.999404 4
29.773237 24.42028 4
32.7685 26.306884 4
33.506682 28.922764 4
34.210211 24.594397 4
26.507814 33.798436 4
43.253108 -5.7671125 4
30.57984 0.16056743 4
32.815009 -4.4812108 4
33.416673 5.8206648 4
34.026295 11.175593 4
28.728018 -4.3559414 4
34.591892 7.2478908 4
26.244536 7.8050678 4
36.280875 6.1773742 4
36.968324 9.1492362 4
32.690536 13.232978 4
30.568836 13.563327 4
34.121655 20.145641 4
34.036697 12.920598 4
37.642194 14.856323 4
34.198717 19.191518 4
35.226949 15.078302 4
30.684342 23.31935 4
35.221676 21.535061 4
29.298314 22.129823 4
32.496488 21.382125 4
29.757061 31.665504 4
33.756245 29.125926 4
33.025183 30.214569 4
41.378542 36.950391 4
32.524852 4.2701651 4
32.447105 3.4629872 4
33.804045 1.3692674 4
32.346849 -5.8627205 4
29.438518 2.6503255 4
31.124359 3.5875135 4
35.071262 6.0017185 4
36.602661 10.466421 4
34.355727 10.194619 4
35.27503 12.553089 4
34.059686 16.964135 4
32.870559 18.424191 4
32.438859 14.482915 4
31.73302 14.098254 4
33.804133 20.870252 4
37.604639 18.992697 4
31.263548 13.523224 4
31.234082 12.427849 4
33.131044 14.547988 4
36.19268 18.513016 4
34.502069 25.208213 4
36.173102 28.156847 4
34.563931 22.641108 4
35.290512 30.873005 4
32.014655 27.156668 4
33.043911 -1.1575347 4
27.179015 -1.8659108 4
35.414113 -0.090921248 4
33.919341 10.137281 4
31.88956 5.059981 4
34.726539 8.7858724 4
35.025142 7.2065046 4
38.146853 8.4769001 4
36.545195 13.1416 4
37.802096 12.148372 4
34.677206 12.636763 4
31.301331 14.381249 4
33.366522 18.774798 4
34.975507 12.76502 4
32.477328 17.667472 4
35.177116 19.63905 4
36.690261 20.341713 4
35.306148 25.735824 4
34.243879 20.649983 4
35.700523 23.925739 4
32.589613 25.206658 4
32.122328 25.649717 4
31.657702 28.580496 4
33.58286 30.166642 4
26.422756 31.085141 4
27.922093 -5.8394406 4
32.67079 0.26747694 4
32.38632 1.1249624 4
30.417357 -1.1484675 4
39.624559 4.9657239 4
34.226171 3.3043123 4
35.614476 6.5676927 4
36.468881 4.3795594 4
36.676242 9.1635715 4
36.134884 9.8105755 4
34.897377 15.167665 4
37.293109 13.511516 4
39.835295 11.74357 4
38.642975 11.160131 4
32.068475 16.785055 4
31.80519 17.756169 4
34.722881 14.584716 4
32.314452 20.40533 4
34.593384 20.503336 4
35.959691 21.645354 4
37.260417 26.797627 4
34.365512 21.883697 4
34.630876 23.040802 4
31.362184 29.161847 4
29.305537 33.257691 4
37.969816 -9.6044474 4
29.610229 -0.67512618 4
30.98555 4.5037309 4
37.272201 4.7986084 4
34.624994 6.2271846 4
40.468727 6.31687 4
35.200288 6.5091204 4
31.991117 10.776344 4
35.235354 10.196751 4
32.861575 9.9385762 4
33.374348 14.279297 4
33.080997 13.891247 4
34.932232 16.754179 4
33.69154 14.422152 4
37.711152 21.069038 4
36.56827 21.134316 4
33.030333 20.026553 4
34.641383 21.833852 4
33.620373 22.46315 4
32.380349 19.93705 4
34.119519 24.938488 4
35.364217 23.273196 4
30.561417 29.774491 4
30.778727 32.886541 4
39.671653 36.043494 4
33.825478 -2.0691774 4
34.000355 2.4156248 4
34.228699 1.3523385 4
30.49716 4.910866 4
34.965795 4.5960763 4
36.343059 1.9278994 4
37.011256 7.2742434 4
37.691679 10.281676 4
37.324887 9.7317312 4
34.146114 10.858975 4
34.943708 11.189455 4
35.294869 13.627906 4
35.112948 15.903935 4
33.295504 14.972608 4
34.581728 16.186353 4
46.934432 17.316883 4
36.496737 22.47891 4
35.607915 23.0868 4
33.205594 21.964996 4
36.761215 28.534565 4
35.808638 28.871691 4
36.336309 26.808224 4
37.894171 27.901919 4
34.796847 33.800016 4
32.077143 33.934644 4
34.633412 -3.8539359 4
33.028028 0.47698401 4
36.56578 3.8331015 4
34.411712 4.6953543 4
32.78778 2.1233388 4
38.749732 8.137194 4
33.789895 6.6891159 4
37.333996 9.3333148 4
36.453343 6.6745201 4
34.417894 8.173849 4
37.744867 11.200365 4
34.289222 12.905032 4
32.871009 14.791551 4
37.456232 13.711496 4
38.006675 18.628151 4
35.675485 14.806588 4
40.00265 16.110162 4
37.453371 16.956128 4
34.029952 18.633877 4
36.967502 22.008891 4
36.914352 22.570713 4
35.145336 23.710922 4
35.242843 24.47913 4
38.426603 31.479957 4
34.747164 32.0505 4
37.042027 2.6078914 4
34.917589 -4.5945093 4
36.178313 3.750249 4
34.013727 1.5536129 4
34.058925 4.2895831 4
37.347865 6.8819184 4
35.351168 5.1037379 4
34.022231 8.3828037 4
34.710196 12.96219 4
36.845959 9.7277699 4
34.903017 13.736505 4
34.722778 12.002331 4
38.133103 16.052041 4
35.175124 15.403653 4
35.376677 19.037994 4
33.766177 18.854786 4
36.462858 20.008799 4
36.815387 21.539499 4
34.821668 22.504466 4
36.670878 25.509468 4
35.490297 24.636817 4
33.421534 28.157711 4
35.994807 20.950664 4
35.236646 31.588449 4
37.605491 29.684112 4
34.809662 0.6656898 4
36.098618 -0.42800816 4
35.248513 2.012152 4
34.689818 4.5104053 4
36.329623 4.7145908 4
37.985866 9.534912 4
37.0482 13.21786 4
37.248529 12.211506 4
36.920843 11.70629 4
38.72393 13.366408 4
35.834799 16.055791 4
37.605836 15.773547 4
35.250028 18.590481 4
40.263841 18.730156 4
37.422671 18.82897 4
40.220716 17.668532 4
36.617608 18.193967 4
36.606913 19.314383 4
39.01238 17.258663 4
37.975583 19.346758 4
38.624907 20.023667 4
38.111553 28.172816 4
38.330962 29.993774 4
33.475589 26.748332 4
32.807956 30.788476 4
36.520972 1.0735881 4
37.329342 1.7070597 4
35.855284 0.95560274 4
36.977542 4.1172031 4
36.586582 5.5110194 4
37.030806 7.7055507 4
40.277128 10.772095 4
36.275678 7.1758236 4
34.967276 8.8871595 4
37.315667 11.593351 4
33.947645 14.415052 4
36.650193 11.483472 4
35.4831 14.429168 4
37.110585 17.075126 4
38.009928 16.346608 4
36.388093 16.314356 4
36.041449 18.133271 4
35.793725 19.794176 4
37.094478 21.570049 4
36.366576 23.699824 4
36.929029 23.138206 4
36.654475 24.753396 4
37.251007 25.491053 4
33.149847 30.751526 4
34.666805 29.285296 4
36.963378 1.6106624 4
37.973993 1.4067289 4
37.265899 2.4466566 4
37.798491 3.6344013 4
37.960273 5.4750877 4
37.696385 5.8144795 4
38.547491 8.5282186 4
37.85616 9.7254491 4
37.40317 10.655713 4
37.616597 13.317631 4
37.691945 14.029786 4
37.994816 14.969119 4
38.92072 14.996717 4
37.789078 17.260738 4
36.992452 17.306087 4
39.963662 21.60738 4
37.566553 19.993227 4
37.487544 20.443765 4
37.627707 21.724745 4
39.336762 20.8266 4
37.331951 23.712145 4
38.288356 22.697807 4
36.101294 25.786799 4
37.768277 25.516257 4
38.041081 30.011749 4
37.265401 0.082374186 4
36.701255 1.8836042 4
[...]
POINT_DATA 1250
SCALARS m double
LOOKUP_TABLE default
1
1
1
1
1
1
1
1
1
1
1
1
1
1
1
1
1
1
1
1
1
1
1
1
1
1
1
1
1
1
1
1
1
1
1
1
1
1
1
1
1
1
1
1
1
1
1
1
1
1
1
1
1
1
1
1
1
1
1
1
1
1
1
1
1
1
1
1
1
1
1
1
1
1
1
1
1
1
1
1
1
1
1
1
1
1
1
1
1
1
1
1
1
1
1
1
1
1
1
1
1
1
1
1
1
1
1
1
1
1
1
1
1
1
1
1
1
1
1
1
1
1
1
1
1
1
1
1
1
1
1
1
1
1
1
1
1
1
1
1
1
1
1
1
1
1
1
1
1
1
1
1
1
1
1
1
1
1
1
1
1
1
1
1
1
1
1
1
1
1
1
1
1
1
1
1
1
1
1
1
1
1
1
1
1
1
1
1
1
1
1
1
1
1
1
1
1
1
1
1
1
1
1
1
1
1
1
1
1
1
1
1
1
1
1
1
1
1
1
1
1
1
1
1
1
1
1
1
1
1
1
1
1
1
1
1
1
1
1
1
1
1
1
1
1
1
1
1
1
1
1
1
1
1
1
1
1
1
1
1
1
1
1
1
1
1
1
1
1
1
1
1
1
1
1
1
1
1
1
1
1
1
1
1
1
1
1
1
1
1
1
1
1
1
1
1
1
1
1
1
1
1
1
1
1
1
1
1
1
1
1
1
1
1
1
1
1
1
1
1
1
1
1
1
1
1
1
1
1
1
1
1
1
1
1
1
1
1
1
1
1
1
1
1
1
1
1
1
1
1
1
1
1
1
1
1
1
1
1
1
1
1
1
1
1
1
1
1
1
1
1
1
1
1
1
1
1
1
1
1
1
1
1
1
1
1
1
1
1
1
1
1
1
1
1
1
1
1
1
1
1
1
1
1
1
1
1
1
1
1
1
1
1
1
1
1
1
1
1
1
1
1
1
1
1
1
1
1
1
1
1
1
1
1
1
1
1
1
1
1
1
1
1
1
1
1
1
1
1
1
1
1
1
1
1
1
1
1
1
1
1
1
1
1
1
1
1
1
1
1
1
1
1
1
1
1
1
1
1
1
1
1
1
1
1
1
1
1
1
1
1
1
1
1
1
1
1
1
1
1
1
1
1
1
1
1
1
1
1
1
1
1
1
1
1
1
1
1
1
1
1
1
1
1
1
1
1
1
1
1
1
1
1
1
1
1
1
1
1
1
1
1
1
1
1
1
1
1
1
1
1
1
1
1
1
1
1
1
1
1
1
1
1
1
1
1
1
1
1
1
1
1
1
1
1
1
1
1
1
1
1
1
1
1
1
1
1
1
1
1
1
1
1
1
1
1
1
1
1
1
1
1
1
1
1
1
1
1
1
1
1
1
1
1
1
1
1
1
1
1
1
1
1
1
1
1
1
1
1
1
1
1
1
1
1
1
1
1
1
1
1
1
1
1
1
1
1
1
1
1
1
1
1
1
1
1
1
1
1
1
1
1
1
1
1
1
1
1
1
1
1
1
1
1
1
1
1
1
1
1
1
1
1
1
1
1
1
1
1
1
1
1
1
1
1
1
1
1
1
1
1
1
1
1
1
1
1
1
1
1
1
1
1
1
1
1
1
1
1
1
1
1
1
1
1
1
1
1
1
1
1
1
1
1
1
1
1
1
1
1
1
1
1
1
1
1
1
1
1
1
1
1
1
1
1
1
1
1
1
1
1
1
1
1
1
1
1
1
1
1
1
1
1
1
1
1
1
1
1
1
1
1
1
1
1
1
1
1
1
1
1
1
1
1
1
1
1
1
1
1
1
1
1
1
1
1
1
1
1
1
1
1
1
1
1
1
1
1
1
1
1
1
1
1
1
1
1
1
1
1
1
1
1
1
1
1
1
1
1
1
1
1
1
1
1
1
1
1
1
1
1
1
1
1
1
1
1
1
1
1
1
1
1
1
1
1
1
1
1
1
1
1
1
1
1
1
1
1
1
1
1
1
1
1
1
1
1
1
1
1
1
1
1
1
1
1
1
1
1
1
1
1
1
1
1
1
1
1
1
1
1
1
1
1
1
1
1
1
1
1
1
1
1
1
1
1
1
1
1
1
1
1
1
1
1
1
1
1
1
1
1
1
1
1
1
1
1
1
1
1
1
1
1
1
1
1
1
1
1
1
1
1
1
1
1
1
1
1
1
1
1
1
1
1
1
1
1
1
1
1
1
1
1
1
1
1
1
1
1
1
1
1
1
1
1
1
1
1
1
1
1
1
1
1
1
1
1
1
1
1
1
1
1
1
1
1
1
1
1
1
1
1
1
1
1
1
1
1
1
1
1
1
1
1
1
1
1
1
1
1
1
1
1
1
1
1
1
1
1
1
1
1
1
1
1
1
1
1
1
1
1
1
1
1
1
1
1
1
1
1
1
1
1
1
1
1
1
1
1
1
1
1
1
1
1
1
1
1
1
1
1
1
1
1
1
1
1
1
1
1
1
1
1
1
1
1
1
1
1
1
1
1
1
1
1
1
1
1
1
1
1
1
1
1
1
1
1
1
1
1
1
1
1
1
1
1
1
1
1
1
1
1
1
1
1
1
1
1
1
1
1
1
1
1
1
1
1
1
1
1
1
1
1
1
1
1
1
1
1
1
1
1
1
1
1
1
1
1
1
1
1
1
1
1
1
1
1
1
1
1
1
1
1
1
1
1
1
1
1
1
1
1
1
1
1
1
1
1
1
1
1
1
1
1
1
1
1
1
1
1
1
1
1
1
1
1
1
1
1
1
1
1
1
1
1
1
1
1
1
1
1
1
1
1
1
1
1
1
1
1
VECTORS v double
1.6611777 -8.886475 0
-4.9676531 -4.8608746 0
-0.60907211 -16.378236 0
-0.40735771 -13.229514 0
6.3187688 7.285253 0
4.8901461 -7.2183114 0
-5.6403898 -4.6574713 0
8.2027167 -3.280588 0
6.2961146 2.1607539 0
-17.018774 -26.595303 0
3.8057659 7.6484172 0
-1.7007131 -0.56887228 0
-5.4673125 1.2267916 0
10.299043 -9.0027952 0
-5.6925665 -1.1372346 0
-9.8231682 6.9964039 0
12.393793 13.835104 0
-10.502567 1.9881107 0
-3.8078805 7.4702771 0
1.5539684 10.825898 0
8.042884 -3.3806022 0
6.9939 1.3874579 0
-21.362767 7.6401926 0
0.20846694 22.962114 0
1.7573979 11.108165 0
8.8399697 -9.0826405 0
3.7840121 -15.920754 0
-4.7418897 -8.9676362 0
4.0751612 -9.3521838 0
-3.8032503 5.4272738 0
-10.290833 -4.3933376 0
-11.854752 -3.4500247 0
27.444875 12.201684 0
0.66497423 -14.577131 0
-1.5161656 -17.994668 0
-3.4450301 12.67508 0
-10.949917 -11.578657 0
1.8576737 -8.6715118 0
9.0975707 -13.346716 0
-8.8961749 -3.4381059 0
-0.96393289 6.3286815 0
-0.35502893 -15.822527 0
1.599652 -14.035615 0
1.2106377 3.3600295 0
-6.3752217 12.436345 0
0.38366361 11.653697 0
-3.8108224 -4.4293218 0
9.5235983 6.7578178 0
1.4688486 13.664056 0
-1.7902403 3.8131323 0
9.0519823 -13.354264 0
3.1086711 -15.900946 0
4.2395753 -7.21128 0
6.760987 -6.0514919 0
10.755233 -12.551442 0
9.6348939 -13.641855 0
3.8072783 -12.727003 0
0.67436247 8.3558292 0
1.7521941 -4.2566539 0
-4.2766594 -4.2982632 0
1.4064598 -5.2625322 0
4.2034255 1.1145691 0
0.036086299 -0.78078511 0
0.51571514 -7.7986439 0
-8.5630211 -0.73222909 0
17.31619 -10.179851 0
4.4117442 8.6353038 0
2.2197315 2.0971839 0
3.7657743 -6.7880784 0
-3.7242362 15.68092 0
1.8401185 -0.2251749 0
6.5407708 -7.2334514 0
-1.8332574 -4.6757542 0
-1.9948353 5.6633215 0
-3.2900014 -1.3130209 0
3.9466542 -13.879275 0
-3.3744813 -4.9914859 0
0.44875526 2.5310695 0
5.0341852 -14.790896 0
-9.2154458 -7.3038845 0
2.1685105 5.4500983 0
-7.7190585 2.2377164 0
0.63161173 -6.7214516 0
-0.54224408 12.662821 0
-7.0766846 -7.0794418 0
1.4042049 -2.6746492 0
7.1120663 -4.1283763 0
3.7445006 8.3822525 0
1.3280823 7.8550121 0
-4.884186 -2.5508737 0
4.8702629 12.839748 0
-6.5830121 -7.4194471 0
0.98631237 9.7028311 0
7.2502186 -7.7485085 0
0.44283836 4.069918 0
4.3387665 -17.122854 0
-5.0103349 11.497166 0
-11.886845 7.5825938 0
-1.8294712 8.241281 0
0.47115368 14.494984 0
3.3724311 -12.746329 0
-5.5576468 -14.755702 0
-6.3885067 -6.8335653 0
-8.9065904 9.4080485 0
-7.6816519 -8.6977833 0
-3.3939147 -16.321608 0
-2.7631022 0.12344857 0
10.225037 -1.8230582 0
7.8281137 5.597061 0
9.7264725 -11.8773 0
-6.4485857 -0.96323593 0
9.9125631 -3.3526002 0
7.6668749 -1.0080434 0
-10.696496 -4.1807392 0
5.2889801 -2.521304 0
2.1977624 -1.955683 0
-7.2027883 1.2942521 0
9.9041627 -6.1455144 0
1.6019869 -0.37660444 0
3.2256192 10.818108 0
-0.89254585 11.397147 0
2.3583132 8.5059652 0
-0.7213858 8.0125732 0
-2.9308564 9.5014836 0
6.464798 1.7633209 0
-2.3600625 -9.0026081 0
0.10341827 -22.491276 0
2.0399893 3.1435774 0
-5.0244485 2.8560223 0
-0.07959217 0.35647356 0
21.75975 -13.722229 0
-7.663908 -2.7969523 0
0.97654258 -9.3742125 0
-5.4043128 2.9213527 0
2.9569109 -8.8747503 0
1.7393169 -1.5029924 0
-10.920018 5.6582101 0
2.5390889 -3.0056507 0
2.6205746 -8.4117524 0
0.32510236 -0.71502827 0
5.5207198 4.1725438 0
4.9131137 -6.1692235 0
1.8135013 3.9580072 0
2.010084 8.6016205 0
14.504866 11.792781 0
-3.0972212 4.450755 0
-3.1808675 -4.3692512 0
-7.6045586 2.0814667 0
2.7835559 9.300306 0
15.660789 7.6179067 0
-1.4170176 -14.401574 0
-7.1221573 -15.01762 0
5.8147175 -11.043445 0
-3.845058 -9.3933204 0
-1.0150659 -7.8882378 0
-0.64071658 5.3694362 0
-6.6125503 -1.3720091 0
3.4437806 -1.7071502 0
2.2447348 -10.839957 0
-2.0518883 -1.2884319 0
17.658751 -7.9919318 0
5.8566642 -3.0203085 0
-1.0983911 -1.7806102 0
-11.249783 3.5179905 0
-3.1148075 12.633891 0
-13.448319 -1.6381729 0
-0.31108919 9.0419773 0
-7.6673352 -0.90081523 0
5.5637267 9.270779 0
2.9716704 1.8251902 0
8.0621397 0.068403621 0
-8.9560229 3.8629712 0
-9.0433537 3.4937835 0
-9.814285 4.2441386 0
3.4012087 13.894946 0
7.9152496 -6.5258364 0
4.0783933 -8.639209 0
0.10219939 -13.992872 0
-9.6933717 1.4363055 0
-7.5483897 -1.1168435 0
-4.6976488 -16.490388 0
5.6269315 5.063577 0
-7.0245865 6.2630246 0
-7.4970572 2.7958089 0
8.4245174 -4.2969614 0
-5.3889863 -5.8736476 0
-3.3249234 6.1849505 0
9.4267833 12.526997 0
15.710133 -11.40011 0
-5.7335047 7.7532353 0
-1.816923 -1.5404681 0
6.86489 4.5917094 0
-5.3765843 5.3527118 0
6.3096192 -1.5242473 0
-5.1015638 -3.5684337 0
5.0369124 5.4410376 0
-9.191499 4.9345251 0
2.7177754 11.955095 0
2.6189534 -2.1119076 0
6.2745533 8.8214606 0
-3.6586297 6.9741373 0
-4.2064366 4.3390194 0
-8.5867454 -5.6020993 0
6.0200022 -18.671514 0
-13.894087 -7.9072477 0
-8.2900898 1.2211732 0
-7.7676037 -6.2441548 0
-8.4127566 5.5935966 0
6.713623 5.5504113 0
-1.0876717 -3.494105 0
-2.3025292 -4.1153552 0
-1.5731143 10.120024 0
-2.3894913 14.392146 0
-2.8723707 2.4676029 0
0.55689918 12.609223 0
-8.1927895 -0.45638808 0
2.6051382 -5.1622411 0
4.0050723 -13.867293 0
-13.60377 -0.28643986 0
0.9034937 -4.0031635 0
16.065475 7.2396674 0
3.7799968 3.9796918 0
-6.0487333 -2.7547434 0
6.310769 7.0147459 0
9.238314 0.40084324 0
2.794426 -1.0623674 0
-5.1583052 -13.827704 0
3.2401158 -6.0085907 0
4.1978239 8.6757296 0
1.77659 -3.7951741 0
-3.6022947 -2.355587 0
-0.073863102 1.2691182 0
10.750393 -3.1786936 0
12.843302 3.1174758 0
12.4423 -9.0277157 0
3.5274821 2.7813396 0
-1.3984201 -19.206255 0
-8.1891526 14.476128 0
-13.559843 -1.2596577 0
-5.1474319 -7.1157457 0
-10.096958 -1.6177843 0
-5.5461572 0.26730146 0
-1.1003594 3.0751115 0
-9.0386911 -2.1012235 0
-5.6191852 8.8473298 0
-0.34976802 -3.5809714 0
-2.581064 -2.9785143 0
-7.0000932 4.7509449 0
5.8617534 7.817536 0
-5.9250294 10.863561 0
-9.3673849 -11.170888 0
-3.1361269 -6.9651434 0
-0.96718464 -5.3371899 0
-12.104071 -0.50478511 0
4.9605694 0.19249434 0
-0.20834675 -1.9815164 0
0.10884149 3.8238487 0
-11.65612 -9.5928148 0
-2.0935275 -4.1034812 0
9.3498512 8.6481514 0
5.671592 8.4255559 0
3.2157743 -7.3751634 0
8.3530509 1.2432393 0
12.455599 -1.345743 0
-5.6295009 2.1079047 0
8.1521522 -9.1302121 0
6.3049902 5.3853089 0
-12.447421 4.792376 0
1.3397639 -8.8204125 0
4.3428851 9.4396859 0
-4.9562094 2.5057889 0
-14.01205 -4.5777804 0
3.8058836 -2.4676796 0
-8.9994093 3.2000387 0
0.22068756 0.94253586 0
0.8313356 -12.772029 0
-7.8197356 -5.684883 0
-7.1283748 4.4966782 0
9.0998518 -4.2546971 0
4.3198767 -7.4267337 0
7.4016391 1.6682388 0
8.3430532 -3.6227253 0
2.9022235 -5.4385394 0
27.346588 30.251475 0
2.5448164 13.130522 0
-6.2849445 -14.322872 0
-10.054235 -2.5709467 0
2.9883259 11.9899 0
-8.0819337 -2.8271489 0
11.775524 14.359293 0
-4.5964685 1.6977764 0
-5.7613317 -1.1377309 0
-5.753611 -1.5027724 0
-6.2956806 1.6461074 0
15.449117 -1.7089639 0
-1.8522244 1.4313867 0
-1.357802 6.164455 0
-0.67907566 8.0988177 0
-4.8820915 24.860459 0
3.3787018 9.8880304 0
-0.83956963 -7.6408199 0
3.4141782 -0.57449986 0
-7.4785522 1.2005104 0
-3.2604337 -0.70750299 0
-11.648257 0.83036268 0
2.6087338 -20.554195 0
4.5425719 -5.9783841 0
-6.9839755 5.2090953 0
-1.0821609 -8.4777977 0
-10.243299 -1.4500747 0
13.558214 -11.056368 0
-8.3223526 3.32245 0
-4.1566699 0.98113827 0
-16.840581 -5.5505947 0
-5.3166522 -0.39325922 0
11.979384 -7.2830737 0
-9.3278272 6.6802955 0
-8.0280035 5.0910595 0
-11.927701 -7.7448857 0
-1.1451986 12.784691 0
-0.58739212 5.0797972 0
1.554345 -2.8855595 0
-2.4937903 5.8773172 0
-4.5674966 9.5569807 0
4.6994456 19.015027 0
0.34305547 -14.631733 0
0.97951192 -4.7329518 0
-2.9647416 -1.7497011 0
-8.2329513 9.3610608 0
-10.454424 -16.396392 0
-10.076702 2.947064 0
-1.3413005 -10.55399 0
-1.1733272 -1.8263314 0
-11.602535 -4.1173895 0
-10.088402 -3.6030522 0
-5.6919337 1.057882 0
9.1295902 6.0104481 0
-14.693344 4.9149691 0
-0.87418169 -3.6946531 0
10.503235 4.9923093 0
3.8049149 -0.67225555 0
-8.6174784 4.1770396 0
-5.2256242 4.9678743 0
-11.176324 -17.494244 0
0.13249635 1.1691354 0
7.207912 12.491421 0
-4.5798585 -2.3149222 0
-2.7447819 4.9751673 0
0.92490267 11.822032 0
-2.9900618 14.130711 0
1.3548577 2.368308 0
-2.9945788 -22.770914 0
-6.7267775 -6.0329253 0
-3.797001 4.0497433 0
-1.2233625 -4.829941 0
-4.2403387 -4.1799657 0
-4.6196543 -6.8309047 0
-2.5649169 -9.2697677 0
-0.95464365 6.1859752 0
9.9225831 -9.8623642 0
2.8630983 6.9869815 0
-2.7772165 6.0476835 0
7.4345135 -1.3165915 0
-1.9742733 0.90434741 0
-1.9698632 11.085974 0
-5.1706778 -1.7603554 0
3.7343685 -5.8712464 0
6.8022271 7.6450879 0
2.8537033 7.8529465 0
-8.2591753 2.3050455 0
-3.0503048 4.0194406 0
-6.441187 14.352255 0
8.7701695 -3.2739986 0
-4.0272134 9.2110216 0
0.18582568 3.0828806 0
-4.5925593 -3.8261477 0
-4.9416927 -10.500112 0
-10.474213 -1.3909103 0
-5.48607 8.0321602 0
-5.9499469 2.8751987 0
4.5029015 -5.4679718 0
-9.4228526 -1.7280496 0
-2.6065575 0.24799364 0
-1.462452 -8.044148 0
0.31492165 1.774496 0
4.9209129 4.685537 0
2.9099271 -1.1370691 0
-9.6372346 1.2552395 0
12.919072 7.0462196 0
-1.6265269 4.6459441 0
2.9392721 8.1149285 0
-6.3644273 2.3646073 0
1.0821652 -5.1202926 0
18.988009 -3.2731029 0
-5.8342225 0.43507928 0
-3.9104515 3.4160349 0
-4.8794462 0.34578988 0
-0.5172557 12.913761 0
-9.1051392 -0.73798702 0
-15.705963 16.402952 0
1.71714 -3.666506 0
-3.9140694 3.2391372 0
-10.3554 -10.782949 0
1.3304063 -2.2855394 0
-8.587115 -3.4479064 0
-6.4316104 1.8466326 0
1.5949182 -1.2927256 0
-2.5432728 -10.919297 0
-1.9530594 -9.3216984 0
4.8050827 -2.0059881 0
-10.420976 11.127241 0
2.4346067 -5.3244753 0
-6.0101746 -9.3600661 0
-0.035749529 8.2823402 0
-6.2180117 7.1401904 0
1.6217464 -3.4025788 0
-3.528698 -8.4276469 0
-7.7793153 -2.4465291 0
-1.2633663 0.13407412 0
-6.7457423 3.9061887 0
0.0011397245 2.9506978 0
-9.0559059 -0.62095149 0
-0.9442761 0.62486273 0
-9.2536907 10.594422 0
-5.5343765 3.0772483 0
4.4376742 -3.8948454 0
0.26559038 -2.0359264 0
7.5115462 -5.2336414 0
-6.1990599 4.5013022 0
1.7539173 0.62295039 0
-9.2097537 2.05886 0
-1.5197388 -2.5423831 0
0.43541134 -2.3729309 0
-5.1376626 5.321982 0
-6.3444731 6.221296 0
-5.505038 4.5605478 0
3.129471 9.2228374 0
4.0817997 -5.4352013 0
-6.8498092 2.0165498 0
-10.993267 2.099674 0
-5.8812868 8.7015256 0
-4.7783018 -0.67160065 0
-4.7061585 1.6367276 0
0.66759195 2.4371983 0
7.1185858 12.164754 0
1.3215723 2.3384604 0
-8.1333513 0.063330744 0
-13.037023 0.75753092 0
-0.49426661 -6.8491895 0
-6.012897 5.6275833 0
-5.3918659 -8.9807457 0
-12.581993 0.53085849 0
-10.005506 0.1173118 0
8.3684948 -5.6256557 0
2.9043165 6.3921956 0
0.46242682 -3.8368906 0
2.3714431 1.1157349 0
-5.3083751 1.7609148 0
-5.8527511 -9.2757969 0
2.9575432 -0.036783499 0
9.6685255 10.373797 0
6.8231991 -0.12908183 0
6.5964517 -2.9046694 0
6.8043735 -0.19198381 0
6.3812442 0.037796586 0
-4.5646301 -3.5680578 0
5.4119873 -8.2793426 0
-11.913763 7.3572586 0
3.6435585 -15.816264 0
0.47812893 1.3458114 0
0.16933276 11.911206 0
0.42580159 -5.8559165 0
-5.0423486 3.3715747 0
-6.4963628 -1.304966 0
-9.2528987 -0.68817968 0
-10.270517 -1.0769392 0
-10.008791 -0.006418767 0
2.4767742 -10.545916 0
-10.004744 0.11523187 0
0.71238428 -7.1000608 0
-9.7132077 0.11082597 0
-8.4540963 -9.5072558 0
-2.0579251 14.466396 0
-13.061003 4.5990155 0
-10.84777 -7.9115678 0
1.7842612 -3.9806596 0
-15.861768 5.9107343 0
12.631447 9.6498895 0
-12.036822 -7.4111585 0
-13.75845 0.21274199 0
8.8683246 -10.078246 0
-0.24518835 -7.3195414 0
-8.6709457 -7.115748 0
0.097854957 4.0934955 0
-10.865776 -5.9838121 0
-4.8613378 -8.5036588 0
-9.8357454 -0.20618047 0
-4.2647653 2.3095456 0
-9.5038809 -1.2040089 0
-2.2411358 9.6859389 0
-10.000118 0.013185406 0
-10.000129 -0.00013406399 0
-10.000748 -0.00012148494 0
-9.9998974 0.090153272 0
-8.3933422 0.38242329 0
-10.018311 -0.039937521 0
-9.7158492 5.1713189 0
-10.026206 -0.18307383 0
5.0227983 -0.12942894 0
-9.7092461 0.85110891 0
-9.872098 0.49982795 0
-9.4635631 0.32056857 0
-9.9905664 0.20786606 0
-10.009975 -0.1039757 0
-9.8391526 0.54881487 0
-10.151214 -0.088520282 0
-10.014448 -0.031022038 0
-9.5263429 -1.3449454 0
-12.214262 3.061377 0
-9.941101 0.075991321 0
-8.5248992 -3.1613009 0
-10.003068 -0.0050598004 0
-10.000339 -1.418644e-05 0
-10.001995 0.020299066 0
4.2720456 -3.343417 0
-9.9996132 0.013121766 0
-9.9999631 -0.00012571993 0
-9.9999752 3.1582641e-05 0
-10.001926 0.0015833396 0
-10.00221 0.0095505886 0
-9.9949126 -0.094945161 0
1.9658959 -11.164563 0
-5.3339557 -1.9886085 0
-7.0313228 3.5431644 0
-10.027836 0.5975964 0
-0.4379403 8.2751492 0
-8.5456986 0.47002594 0
-9.964653 -1.3591573 0
12.187908 -13.096707 0
3.4661383 -4.5638388 0
-10.069855 -0.076033215 0
-9.9936743 -0.20428342 0
-10.000669 0.00058780287 0
-2.9547975 -3.3821174 0
-10.039028 -0.11126759 0
-10.003229 0.0029301036 0
-10.471253 3.9623299 0
-10.007134 -0.057045314 0
-9.9999719 0.0047781104 0
-9.7337541 1.1388515 0
-9.9993843 0.013123693 0
-9.9999404 -0.00011354984 0
-9.9999447 3.6311104e-05 0
-9.9999544 4.2999203e-05 0
-10.000105 0.00014737686 0
-10.000732 0.00027557845 0
-10.051226 0.0143291 0
-9.9849432 0.26250984 0
-10.008702 0.013117725 0
-9.9198001 -0.040726918 0
-10.005352 -0.046801074 0
-10.00824 -0.03147979 0
-9.4307 3.4090215 0
-11.457197 -3.864394 0
-10.008328 -0.22562641 0
-10.000714 0.0016272405 0
-10.012012 0.091530732 0
-9.9996914 -0.00019255436 0
-10.000166 4.128305e-05 0
-10.000056 8.7941201e-05 0
-10.642868 -0.30772743 0
-5.4387448 4.8855783 0
-9.9986929 -0.002955905 0
-10.000359 0.0005989854 0
-10.002221 -0.014438662 0
-9.9991396 0.013131831 0
-9.9997864 -0.00011062146 0
-9.999784 3.5197987e-05 0
-9.9997849 3.9987198e-05 0
-9.9997866 4.0640441e-05 0
-9.9997962 4.4389684e-05 0
-9.9998478 0.00011599975 0
-10.073595 -0.88621634 0
-10.000989 0.0011650337 0
2.2099687 -5.0012275 0
-9.9760278 -0.21246151 0
-9.9967582 -0.20162974 0
6.9829262 -0.069819145 0
-10.071254 -0.14784257 0
-9.9991189 -0.18359275 0
-9.9993292 0.00053305447 0
-6.8593035 2.5194628 0
-12.171617 2.4009638 0
-9.9997533 -0.00013929337 0
-9.9997708 6.2841559e-05 0
-10.00078 0.00032563867 0
-10.002225 0.0010443207 0
-10.000176 -0.00035786472 0
-9.9997533 0.00018999433 0
-9.9997657 -0.013085522 0
-10.011647 0.012401317 0
-10.013035 -8.8424868e-05 0
-10.013028 3.8614763e-05 0
-10.01301 5.1203993e-05 0
-10.013009 5.2188045e-05 0
-10.013009 5.2665007e-05 0
-10.013017 5.6357738e-05 0
-10.013189 0.0001007563 0
-10.013501 0.00078950805 0
-10.053798 -0.029809184 0
-10.046273 -0.0019258591 0
-10.017072 -0.0017491881 0
-10.028053 -0.0028200538 0
-10.017161 -0.0019314758 0
-10.014404 -0.0007169683 0
-10.000277 0.036370651 0
-10.017434 -0.013090024 0
-10.014959 -0.00053297981 0
-10.013052 1.196955e-05 0
-10.013005 5.7080983e-05 0
-10.013023 5.6419873e-05 0
-10.013026 5.4514397e-05 0
-10.013015 5.7765316e-05 0
-10.013017 0.00018711419 0
-10.01229 -0.01235149 0
9.3664052 -3.8409628 0
10.641858 -1.8558531 0
11.387603 8.1200764 0
6.9870135 -11.314907 0
0.45765453 -3.3159707 0
-0.77135299 -8.9001784 0
-3.4327534 -2.1633145 0
1.2919566 -7.4640141 0
10.108949 -8.0634938 0
9.5942211 0.012808078 0
-10.231757 -16.88946 0
0.8991816 4.3760466 0
17.073611 0.42827548 0
5.282737 8.8921188 0
-2.8128801 -0.59997265 0
-1.0946103 7.4105952 0
-0.46244419 0.020809715 0
21.702439 -4.9487369 0
-6.1474411 14.931653 0
14.554908 -4.2478242 0
-5.7074819 -1.3514096 0
3.4698064 8.2812025 0
-1.6636811 7.3809425 0
-2.6282259 22.954801 0
-9.4470073 5.5470682 0
8.1983221 -4.1203634 0
4.3802368 4.8162683 0
-13.153265 -12.378742 0
-7.4564792 6.2967819 0
1.497722 8.6524911 0
-1.50094 -6.6320053 0
-6.1696376 -8.447767 0
5.4880786 -11.817897 0
-2.7021263 6.9451415 0
-4.1019747 10.086243 0
8.0372396 1.7175512 0
12.332288 -3.7268928 0
5.463615 -0.50851277 0
24.966428 -5.3928337 0
1.3883209 -1.1972681 0
2.1752594 -3.0745758 0
8.8842897 2.0884903 0
2.4862559 0.3442019 0
-9.7386473 -0.67177502 0
11.383694 12.66543 0
-0.21621416 11.148953 0
-2.3661551 7.8835501 0
-10.37153 1.5845215 0
-8.1633461 6.440421 0
-0.11999295 9.339627 0
8.2355633 -6.0207599 0
0.41568515 -0.35966485 0
-3.4413397 -17.804796 0
-5.3043055 -8.6906294 0
-4.1290272 -12.714082 0
4.437562 15.590078 0
7.1912439 1.7558201 0
2.273406 -15.048616 0
-14.433314 11.177588 0
-13.596536 0.8588218 0
-8.9021875 6.6758132 0
-10.755546 -3.1511832 0
6.3575105 -2.6127919 0
6.8131427 -0.0892195 0
-10.028244 -4.4707154 0
-0.47411205 -8.8426536 0
1.5319707 8.1798124 0
3.3815345 5.057108 0
11.81512 1.231441 0
11.590936 9.8907689 0
4.0822691 9.671164 0
-1.9289132 11.642638 0
6.4720168 7.0049652 0
-6.557786 10.533333 0
-2.1733722 7.7035788 0
-6.5485337 -6.7367889 0
-1.9775949 -10.5641 0
17.160618 -7.2265262 0
-2.5821091 -1.4797325 0
0.78207832 -0.61564475 0
-14.944305 -10.863091 0
0.44133761 -8.8331671 0
2.1996054 -17.861272 0
-12.071407 -1.8494009 0
-10.281503 -4.1738257 0
0.55609723 -21.002579 0
-4.7198902 9.7461069 0
12.046443 -1.0274148 0
7.4528917 6.564465 0
-2.7218682 1.7336536 0
0.78170701 -4.4446246 0
-8.4054121 0.42904528 0
-6.8578966 -0.7328952 0
10.051661 -4.4306438 0
-7.2478554 6.6428501 0
6.6454157 -0.59453205 0
10.40778 1.1508181 0
-8.2434965 0.75206466 0
-0.6124145 -12.124024 0
7.0375757 8.2928882 0
8.3188066 -8.7018473 0
3.8958571 -0.64968759 0
8.6830194 -0.909278 0
26.726517 -3.777718 0
5.6615532 -6.5877955 0
13.795947 -2.3595298 0
-9.0553293 -10.500891 0
4.0154362 -3.9867624 0
6.7007935 -2.92126 0
1.8072701 -8.9991563 0
0.9121952 -1.8232801 0
-10.813619 0.84170976 0
8.1397946 16.972079 0
0.24897692 16.026285 0
-14.263872 0.96607355 0
1.1845873 -2.7928819 0
4.7284689 -2.2241996 0