# vtk DataFile Version 4.0
hesp visualization file
ASCII
DATASET UNSTRUCTURED_GRID
POINTS 1250 double
30.543029 1.1225809 4
30.543016 2.244922 4
30.540041 3.3673851 4
30.540042 4.4898476 4
30.540042 5.6123097 4
30.540042 6.7347717 4
30.540042 7.8572338 4
30.540042 8.9796958 4
30.540042 10.102158 4
30.540042 11.22462 4
30.540042 12.347082 4
30.540042 13.469544 4
30.540042 14.592006 4
30.540042 15.714468 4
30.540042 16.83693 4
30.540041 17.959392 4
30.540041 19.081854 4
30.540041 20.204316 4
30.540041 21.326778 4
30.540041 22.44924 4
30.540041 23.571702 4
30.540041 24.694164 4
30.540041 25.816627 4
30.540042 26.939088 4
30.540043 28.06144 4
30.837878 1.1225588 4
30.837626 2.2449253 4
30.786441 3.3673861 4
30.786441 4.4898483 4
30.786441 5.6123103 4
30.786441 6.7347724 4
30.786441 7.8572344 4
30.786441 8.9796965 4
30.786441 10.102159 4
30.786441 11.224621 4
30.786441 12.347083 4
30.786441 13.469545 4
30.786441 14.592007 4
30.786441 15.714469 4
30.786441 16.836931 4
30.786441 17.959393 4
30.786441 19.081855 4
30.786441 20.204317 4
30.786441 21.326779 4
30.786441 22.449241 4
30.786441 23.571703 4
30.786441 24.694165 4
30.786441 25.816627 4
30.786441 26.939089 4
30.786441 28.061451 4
31.867386 1.1225614 4
31.867386 2.2449248 4
31.867386 3.3673861 4
31.867386 4.4898482 4
31.867386 5.6123102 4
31.867386 6.7347723 4
31.867386 7.8572343 4
31.867386 8.9796964 4
31.867386 10.102158 4
31.867386 11.22462 4
31.867386 12.347083 4
31.867386 13.469545 4
31.867386 14.592007 4
31.867386 15.714469 4
31.867386 16.836931 4
31.867386 17.959393 4
31.867386 19.081855 4
31.867386 20.204317 4
31.867386 21.326779 4
31.867386 22.449241 4
31.867386 23.571703 4
31.867386 24.694165 4
31.867386 25.816627 4
31.867386 26.939088 4
31.867386 28.061452 4
32.989848 1.1225613 4
32.989848 2.2449248 4
32.989848 3.3673861 4
32.989848 4.4898482 4
32.989848 5.6123102 4
32.989848 6.7347723 4
32.989848 7.8572343 4
32.989848 8.9796964 4
32.989848 10.102158 4
32.989848 11.22462 4
32.989848 12.347083 4
32.989848 13.469545 4
32.989848 14.592007 4
32.989848 15.714469 4
32.989848 16.836931 4
32.989848 17.959393 4
32.989848 19.081855 4
32.989848 20.204317 4
32.989848 21.326779 4
32.989848 22.449241 4
32.989848 23.571703 4
32.989848 24.694165 4
32.989848 25.816627 4
32.989848 26.939088 4
32.989848 28.061452 4
34.11231 1.1225613 4
34.11231 2.2449248 4
34.11231 3.3673861 4
34.11231 4.4898482 4
34.11231 5.6123102 4
34.11231 6.7347723 4
34.11231 7.8572343 4
34.11231 8.9796964 4
34.11231 10.102158 4
34.11231 11.22462 4
34.11231 12.347083 4
34.11231 13.469545 4
34.11231 14.592007 4
34.11231 15.714469 4
34.11231 16.836931 4
34.11231 17.959393 4
34.11231 19.081855 4
34.11231 20.204317 4
34.11231 21.326779 4
34.11231 22.449241 4
34.11231 23.571703 4
34.11231 24.694165 4
34.11231 25.816627 4
34.11231 26.939088 4
34.11231 28.061452 4
35.234772 1.1225613 4
35.234772 2.2449248 4
35.234772 3.3673861 4
35.234772 4.4898482 4
35.234772 5.6123102 4
35.234772 6.7347723 4
35.234772 7.8572343 4
35.234772 8.9796964 4
35.234772 10.102158 4
35.234772 11.22462 4
35.234772 12.347083 4
35.234772 13.469545 4
35.234772 14.592007 4
35.234772 15.714469 4
35.234772 16.836931 4
35.234772 17.959393 4
35.234772 19.081855 4
35.234772 20.204317 4
35.234772 21.326779 4
35.234772 22.449241 4
35.234772 23.571703 4
35.234772 24.694165 4
35.234772 25.816627 4
35.234772 26.939088 4
35.234772 28.061452 4
36.357234 1.1225613 4
36.357234 2.2449248 4
36.357234 3.3673861 4
36.357234 4.4898482 4
36.357234 5.6123102 4
36.357234 6.7347723 4
36.357234 7.8572343 4
36.357234 8.9796964 4
36.357234 10.102158 4
36.357234 11.22462 4
36.357234 12.347083 4
36.357234 13.469545 4
36.357234 14.592007 4
36.357234 15.714469 4
36.357234 16.836931 4
36.357234 17.959393 4
36.357234 19.081855 4
36.357234 20.204317 4
36.357234 21.326779 4
36.357234 22.449241 4
36.357234 23.571703 4
36.357234 24.694165 4
36.357234 25.816627 4
36.357234 26.939088 4
36.357234 28.061452 4
37.479696 1.1225613 4
37.479696 2.2449248 4
37.479696 3.3673861 4
37.479696 4.4898482 4
37.479696 5.6123102 4
37.479696 6.7347723 4
37.479696 7.8572343 4
37.479696 8.9796964 4
37.479696 10.102158 4
37.479696 11.22462 4
37.479696 12.347083 4
37.479696 13.469545 4
37.479696 14.592007 4
37.479696 15.714469 4
37.479696 16.836931 4
37.479696 17.959393 4
37.479696 19.081855 4
37.479696 20.204317 4
37.479696 21.326779 4
37.479696 22.449241 4
37.479696 23.571703 4
37.479696 24.694165 4
37.479696 25.816627 4
37.479696 26.939088 4
37.479696 28.061452 4
38.602158 1.1225613 4
38.602158 2.2449248 4
38.602158 3.3673861 4
38.602158 4.4898482 4
38.602158 5.6123102 4
38.602158 6.7347723 4
38.602158 7.8572343 4
38.602158 8.9796964 4
38.602158 10.102158 4
38.602158 11.22462 4
38.602158 12.347083 4
38.602158 13.469545 4
38.602158 14.592007 4
38.602158 15.714469 4
38.602158 16.836931 4
38.602158 17.959393 4
38.602158 19.081855 4
38.602158 20.204317 4
38.602158 21.326779 4
38.602158 22.449241 4
38.602158 23.571703 4
38.602158 24.694165 4
38.602158 25.816627 4
38.602158 26.939088 4
38.602158 28.061452 4
39.72462 1.1225613 4
39.72462 2.2449248 4
39.72462 3.3673861 4
39.72462 4.4898482 4
39.72462 5.6123102 4
39.72462 6.7347723 4
39.72462 7.8572343 4
39.72462 8.9796964 4
39.72462 10.102158 4
39.72462 11.22462 4
39.72462 12.347083 4
39.72462 13.469545 4
39.72462 14.592007 4
39.72462 15.714469 4
39.72462 16.836931 4
39.72462 17.959393 4
39.72462 19.081855 4
39.72462 20.204317 4
39.72462 21.326779 4
39.72462 22.449241 4
39.72462 23.571703 4
39.72462 24.694165 4
39.72462 25.816627 4
39.72462 26.939088 4
39.72462 28.061452 4
40.847083 1.1225613 4
40.847083 2.2449248 4
40.847083 3.3673861 4
40.847083 4.4898482 4
40.847083 5.6123102 4
40.847083 6.7347723 4
40.847083 7.8572343 4
40.847083 8.9796964 4
40.847083 10.102158 4
40.847083 11.22462 4
40.847083 12.347083 4
40.847083 13.469545 4
40.847083 14.592007 4
40.847083 15.714469 4
40.847083 16.836931 4
40.847083 17.959393 4
40.847083 19.081855 4
40.847083 20.204317 4
40.847083 21.326779 4
40.847083 22.449241 4
40.847083 23.571703 4
40.847083 24.694165 4
40.847083 25.816627 4
40.847083 26.939088 4
40.847083 28.061452 4
41.969545 1.1225613 4
41.969545 2.2449248 4
41.969545 3.3673861 4
41.969545 4.4898482 4
41.969545 5.6123102 4
41.969545 6.7347723 4
41.969545 7.8572343 4
41.969545 8.9796964 4
41.969545 10.102158 4
41.969545 11.22462 4
41.969545 12.347083 4
41.969545 13.469545 4
41.969545 14.592007 4
41.969545 15.714469 4
41.969545 16.836931 4
41.969545 17.959393 4
41.969545 19.081855 4
41.969545 20.204317 4
41.969545 21.326779 4
41.969545 22.449241 4
41.969545 23.571703 4
41.969545 24.694165 4
41.969545 25.816627 4
41.969545 26.939088 4
41.969545 28.061452 4
43.092007 1.1225613 4
43.092007 2.2449248 4
43.092007 3.3673861 4
43.092007 4.4898482 4
43.092007 5.6123102 4
43.092007 6.7347723 4
43.092007 7.8572343 4
43.092007 8.9796964 4
43.092007 10.102158 4
43.092007 11.22462 4
43.092007 12.347083 4
43.092007 13.469545 4
43.092007 14.592007 4
43.092007 15.714469 4
43.092007 16.836931 4
43.092007 17.959393 4
43.092007 19.081855 4
43.092007 20.204317 4
43.092007 21.326779 4
43.092007 22.449241 4
43.092007 23.571703 4
43.092007 24.694165 4
43.092007 25.816627 4
43.092007 26.939088 4
43.092007 28.061452 4
44.214469 1.1225613 4
44.214469 2.2449248 4
44.214469 3.3673861 4
44.214469 4.4898482 4
44.214469 5.6123102 4
44.214469 6.7347723 4
44.214469 7.8572343 4
44.214469 8.9796964 4
44.214469 10.102158 4
44.214469 11.22462 4
44.214469 12.347083 4
44.214469 13.469545 4
44.214469 14.592007 4
44.214469 15.714469 4
44.214469 16.836931 4
44.214469 17.959393 4
44.214469 19.081855 4
44.214469 20.204317 4
44.214469 21.326779 4
44.214469 22.449241 4
44.214469 23.571703 4
44.214469 24.694165 4
44.214469 25.816627 4
44.214469 26.939088 4
44.214469 28.061452 4
45.336931 1.1225613 4
45.336931 2.2449248 4
45.336931 3.3673861 4
45.336931 4.4898482 4
45.336931 5.6123102 4
45.336931 6.7347723 4
45.336931 7.8572343 4
45.336931 8.9796964 4
45.336931 10.102158 4
45.336931 11.22462 4
45.336931 12.347083 4
45.336931 13.469545 4
45.336931 14.592007 4
45.336931 15.714469 4
45.336931 16.836931 4
45.336931 17.959393 4
45.336931 19.081855 4
45.336931 20.204317 4
45.336931 21.326779 4
45.336931 22.449241 4
45.336931 23.571703 4
45.336931 24.694165 4
45.336931 25.816627 4
45.336931 26.939088 4
45.336931 28.061452 4
46.459393 1.1225613 4
46.459393 2.2449248 4
46.459393 3.3673861 4
46.459393 4.4898482 4
46.459393 5.6123102 4
46.459393 6.7347723 4
46.459393 7.8572343 4
46.459393 8.9796964 4
46.459393 10.102158 4
46.459393 11.22462 4
46.459393 12.347083 4
46.459393 13.469545 4
46.459393 14.592007 4
46.459393 15.714469 4
46.459393 16.836931 4
46.459393 17.959393 4
46.459393 19.081855 4
46.459393 20.204317 4
46.459393 21.326779 4
46.459393 22.449241 4
46.459393 23.571703 4
46.459393 24.694165 4
46.459393 25.816627 4
46.459393 26.939088 4
46.459393 28.061452 4
47.581855 1.1225613 4
47.581855 2.2449248 4
47.581855 3.3673861 4
47.581855 4.4898482 4
47.581855 5.6123102 4
47.581855 6.7347723 4
47.581855 7.8572343 4
47.581855 8.9796964 4
47.581855 10.102158 4
47.581855 11.22462 4
47.581855 12.347083 4
47.581855 13.469545 4
47.581855 14.592007 4
47.581855 15.714469 4
47.581855 16.836931 4
47.581855 17.959393 4
47.581855 19.081855 4
47.581855 20.204317 4
47.581855 21.326779 4
47.581855 22.449241 4
47.581855 23.571703 4
47.581855 24.694165 4
47.581855 25.816627 4
47.581855 26.939088 4
47.581855 28.061452 4
48.704317 1.1225613 4
48.704317 2.2449248 4
48.704317 3.3673861 4
48.704317 4.4898482 4
48.704317 5.6123102 4
48.704317 6.7347723 4
48.704317 7.8572343 4
48.704317 8.9796964 4
48.704317 10.102158 4
48.704317 11.22462 4
48.704317 12.347083 4
48.704317 13.469545 4
48.704317 14.592007 4
48.704317 15.714469 4
48.704317 16.836931 4
48.704317 17.959393 4
48.704317 19.081855 4
48.704317 20.204317 4
48.704317 21.326779 4
48.704317 22.449241 4
48.704317 23.571703 4
48.704317 24.694165 4
48.704317 25.816627 4
48.704317 26.939088 4
48.704317 28.061452 4
49.826779 1.1225613 4
49.826779 2.2449248 4
49.826779 3.3673861 4
[...]
POINT_DATA 1250
SCALARS m double
LOOKUP_TABLE default
1
1
1
1
1
1
1
1
1
1
1
1
1
1
1
1
1
1
1
1
1
1
1
1
1
1
1
1
1
1
1
1
1
1
1
1
1
1
1
1
1
1
1
1
1
1
1
1
1
1
1
1
1
1
1
1
1
1
1
1
1
1
1
1
1
1
1
1
1
1
1
1
1
1
1
1
1
1
1
1
1
1
1
1
1
1
1
1
1
1
1
1
1
1
1
1
1
1
1
1
1
1
1
1
1
1
1
1
1
1
1
1
1
1
1
1
1
1
1
1
1
1
1
1
1
1
1
1
1
1
1
1
1
1
1
1
1
1
1
1
1
1
1
1
1
1
1
1
1
1
1
1
1
1
1
1
1
1
1
1
1
1
1
1
1
1
1
1
1
1
1
1
1
1
1
1
1
1
1
1
1
1
1
1
1
1
1
1
1
1
1
1
1
1
1
1
1
1
1
1
1
1
1
1
1
1
1
1
1
1
1
1
1
1
1
1
1
1
1
1
1
1
1
1
1
1
1
1
1
1
1
1
1
1
1
1
1
1
1
1
1
1
1
1
1
1
1
1
1
1
1
1
1
1
1
1
1
1
1
1
1
1
1
1
1
1
1
1
1
1
1
1
1
1
1
1
1
1
1
1
1
1
1
1
1
1
1
1
1
1
1
1
1
1
1
1
1
1
1
1
1
1
1
1
1
1
1
1
1
1
1
1
1
1
1
1
1
1
1
1
1
1
1
1
1
1
1
1
1
1
1
1
1
1
1
1
1
1
1
1
1
1
1
1
1
1
1
1
1
1
1
1
1
1
1
1
1
1
1
1
1
1
1
1
1
1
1
1
1
1
1
1
1
1
1
1
1
1
1
1
1
1
1
1
1
1
1
1
1
1
1
1
1
1
1
1
1
1
1
1
1
1
1
1
1
1
1
1
1
1
1
1
1
1
1
1
1
1
1
1
1
1
1
1
1
1
1
1
1
1
1
1
1
1
1
1
1
1
1
1
1
1
1
1
1
1
1
1
1
1
1
1
1
1
1
1
1
1
1
1
1
1
1
1
1
1
1
1
1
1
1
1
1
1
1
1
1
1
1
1
1
1
1
1
1
1
1
1
1
1
1
1
1
1
1
1
1
1
1
1
1
1
1
1
1
1
1
1
1
1
1
1
1
1
1
1
1
1
1
1
1
1
1
1
1
1
1
1
1
1
1
1
1
1
1
1
1
1
1
1
1
1
1
1
1
1
1
1
1
1
1
1
1
1
1
1
1
1
1
1
1
1
1
1
1
1
1
1
1
1
1
1
1
1
1
1
1
1
1
1
1
1
1
1
1
1
1
1
1
1
1
1
1
1
1
1
1
1
1
1
1
1
1
1
1
1
1
1
1
1
1
1
1
1
1
1
1
1
1
1
1
1
1
1
1
1
1
1
1
1
1
1
1
1
1
1
1
1
1
1
1
1
1
1
1
1
1
1
1
1
1
1
1
1
1
1
1
1
1
1
1
1
1
1
1
1
1
1
1
1
1
1
1
1
1
1
1
1
1
1
1
1
1
1
1
1
1
1
1
1
1
1
1
1
1
1
1
1
1
1
1
1
1
1
1
1
1
1
1
1
1
1
1
1
1
1
1
1
1
1
1
1
1
1
1
1
1
1
1
1
1
1
1
1
1
1
1
1
1
1
1
1
1
1
1
1
1
1
1
1
1
1
1
1
1
1
1
1
1
1
1
1
1
1
1
1
1
1
1
1
1
1
1
1
1
1
1
1
1
1
1
1
1
1
1
1
1
1
1
1
1
1
1
1
1
1
1
1
1
1
1
1
1
1
1
1
1
1
1
1
1
1
1
1
1
1
1
1
1
1
1
1
1
1
1
1
1
1
1
1
1
1
1
1
1
1
1
1
1
1
1
1
1
1
1
1
1
1
1
1
1
1
1
1
1
1
1
1
1
1
1
1
1
1
1
1
1
1
1
1
1
1
1
1
1
1
1
1
1
1
1
1
1
1
1
1
1
1
1
1
1
1
1
1
1
1
1
1
1
1
1
1
1
1
1
1
1
1
1
1
1
1
1
1
1
1
1
1
1
1
1
1
1
1
1
1
1
1
1
1
1
1
1
1
1
1
1
1
1
1
1
1
1
1
1
1
1
1
1
1
1
1
1
1
1
1
1
1
1
1
1
1
1
1
1
1
1
1
1
1
1
1
1
1
1
1
1
1
1
1
1
1
1
1
1
1
1
1
1
1
1
1
1
1
1
1
1
1
1
1
1
1
1
1
1
1
1
1
1
1
1
1
1
1
1
1
1
1
1
1
1
1
1
1
1
1
1
1
1
1
1
1
1
1
1
1
1
1
1
1
1
1
1
1
1
1
1
1
1
1
1
1
1
1
1
1
1
1
1
1
1
1
1
1
1
1
1
1
1
1
1
1
1
1
1
1
1
1
1
1
1
1
1
1
1
1
1
1
1
1
1
1
1
1
1
1
1
1
1
1
1
1
1
1
1
1
1
1
1
1
1
1
1
1
1
1
1
1
1
1
1
1
1
1
1
1
1
1
1
1
1
1
1
1
1
1
1
1
1
1
1
1
1
1
1
1
1
1
1
1
1
1
1
1
1
1
1
1
1
1
1
1
1
1
1
1
1
1
1
1
1
1
1
1
1
1
1
1
1
1
1
1
1
1
1
1
1
1
1
1
1
1
1
1
1
1
1
1
1
1
1
1
1
1
1
1
1
1
1
1
1
1
1
1
1
1
1
1
1
1
1
1
1
1
1
1
1
1
1
1
1
1
1
1
1
1
1
1
1
1
1
1
1
1
1
1
1
1
1
1
VECTORS v double
-9.9673288 0.0029196044 0
-9.9660944 -0.00021688094 0
-8.274315 -8.5387179e-05 0
-8.2743028 -5.0590468e-05 0
-8.2743027 -5.0306352e-05 0
-8.2743027 -5.0306355e-05 0
-8.2743027 -5.0306355e-05 0
-8.2743027 -5.0306356e-05 0
-8.2743027 -5.0306356e-05 0
-8.2743027 -5.0306357e-05 0
-8.2743027 -5.0306373e-05 0
-8.2743027 -5.0306226e-05 0
-8.2743027 -5.0307234e-05 0
-8.2743027 -5.0306091e-05 0
-8.2743027 -5.0304961e-05 0
-8.2742995 -5.2501684e-05 0
-8.2742995 -5.2501459e-05 0
-8.2742995 -5.2501459e-05 0
-8.2742995 -5.2501475e-05 0
-8.2742995 -5.2501003e-05 0
-8.2742995 -5.2501018e-05 0
-8.2742995 -5.2500763e-05 0
-8.2742995 -5.2492311e-05 0
-8.2742945 -8.2475032e-05 0
-8.2741991 -0.0023764281 0
11.172701 0.00033097533 0
11.164029 0.00017058889 0
8.2732971 4.4412505e-05 0
8.2732853 4.0209361e-05 0
8.2732852 4.012722e-05 0
8.2732852 4.0127217e-05 0
8.2732852 4.0127217e-05 0
8.2732852 4.0127218e-05 0
8.2732852 4.0127218e-05 0
8.2732852 4.0127219e-05 0
8.2732852 4.0127232e-05 0
8.2732852 4.0127094e-05 0
8.2732852 4.0127927e-05 0
8.2732852 4.0127005e-05 0
8.2732852 4.0126133e-05 0
8.2732816 4.1877102e-05 0
8.2732816 4.1876978e-05 0
8.2732816 4.1876977e-05 0
8.2732816 4.1876985e-05 0
8.2732816 4.187669e-05 0
8.2732816 4.1876698e-05 0
8.2732816 4.187651e-05 0
8.2732816 4.1876659e-05 0
8.2732766 4.6117756e-05 0
8.2732251 -0.00076471273 0
-10.000054 0.0013283524 0
-10.000059 8.1996577e-06 0
-10.000044 -7.7564643e-07 0
-10.000043 -5.5576255e-08 0
-10.000043 -2.0681263e-12 0
-10.000043 -2.1066354e-12 0
-10.000043 -2.106682e-12 0
-10.000043 -2.1070449e-12 0
-10.000043 -2.1057806e-12 0
-10.000043 -2.1074406e-12 0
-10.000043 -2.106734e-12 0
-10.000043 -2.1051437e-12 0
-10.000043 -2.1090272e-12 0
-10.000043 -2.1081322e-12 0
-10.000043 -2.4794955e-12 0
-10.000043 -2.9256882e-12 0
-10.000043 -2.3610406e-12 0
-10.000043 -2.3588699e-12 0
-10.000043 -2.3588522e-12 0
-10.000043 -2.3329338e-12 0
-10.000043 -2.3352732e-12 0
-10.000043 4.0244055e-12 0
-10.000043 2.6926836e-09 0
-10.000043 -8.9209296e-06 0
-10.000038 -0.0013276348 0
-10 0.0013237521 0
-10 8.8383853e-06 0
-10 -4.6853961e-08 0
-10 -6.1815269e-12 0
-10 -2.4839103e-14 0
-10 -2.620748e-14 0
-10 -2.6204404e-14 0
-10 -2.6581692e-14 0
-10 -2.5313514e-14 0
-10 -2.6969028e-14 0
-10 -2.6216218e-14 0
-10 -2.5459156e-14 0
-10 -2.6971112e-14 0
-10 -2.6234504e-14 0
-10 -2.7897832e-14 0
-10 -2.8211427e-14 0
-10 -2.8138389e-14 0
-10 -2.7348064e-14 0
-10 -2.731452e-14 0
-10 -2.6606833e-14 0
-10 -2.8929575e-14 0
-10 6.2674586e-12 0
-10 2.6798111e-09 0
-10 -8.8826016e-06 0
-10 -0.0013237079 0
-10 0.0013236875 0
-10 8.8826051e-06 0
-10 -2.6798322e-09 0
-10 -6.2940919e-12 0
-10 1.0005088e-15 0
-10 -4.3167418e-18 0
-10 -1.0895844e-18 0
-10 -3.7820379e-16 0
-10 8.8957587e-16 0
-10 -7.6566589e-16 0
-10 -1.2650887e-17 0
-10 7.4201272e-16 0
-10 -7.6080901e-16 0
-10 -3.2415477e-17 0
-10 1.5067803e-17 0
-10 7.9159402e-16 0
-10 -7.9281823e-16 0
-10 -2.7382322e-18 0
-10 3.0627799e-17 0
-10 7.3918397e-16 0
-10 -1.5839249e-15 0
-10 6.2948066e-12 0
-10 2.6798324e-09 0
-10 -8.8826051e-06 0
-10 -0.0013236875 0
-10 0.0013236875 0
-10 8.8826051e-06 0
-10 -2.6798325e-09 0
-10 -6.2950118e-12 0
-10 1.000911e-15 0
-10 -4.3188413e-18 0
-10 -1.1098763e-18 0
-10 -3.78354e-16 0
-10 8.8959275e-16 0
-10 -7.6565272e-16 0
-10 -1.2897026e-17 0
-10 7.4173278e-16 0
-10 -7.6127833e-16 0
-10 -3.2041796e-17 0
-10 1.530082e-17 0
-10 7.9179758e-16 0
-10 -7.9286974e-16 0
-10 -2.7403866e-18 0
-10 3.0653749e-17 0
-10 7.390137e-16 0
-10 -1.5841743e-15 0
-10 6.2948072e-12 0
-10 2.6798324e-09 0
-10 -8.8826051e-06 0
-10 -0.0013236875 0
-10 0.0013236875 0
-10 8.8826051e-06 0
-10 -2.6798325e-09 0
-10 -6.2950114e-12 0
-10 1.0008153e-15 0
-10 -4.2348457e-18 0
-10 -1.1304081e-18 0
-10 -3.7833749e-16 0
-10 8.8966339e-16 0
-10 -7.6581743e-16 0
-10 -1.2821528e-17 0
-10 7.4184587e-16 0
-10 -7.6129772e-16 0
-10 -3.2051808e-17 0
-10 1.5330724e-17 0
-10 7.9178157e-16 0
-10 -7.9286182e-16 0
-10 -2.7366887e-18 0
-10 3.0633445e-17 0
-10 7.3904521e-16 0
-10 -1.5841123e-15 0
-10 6.2948067e-12 0
-10 2.6798324e-09 0
-10 -8.8826051e-06 0
-10 -0.0013236875 0
-10 0.0013236875 0
-10 8.8826051e-06 0
-10 -2.6798325e-09 0
-10 -6.2950115e-12 0
-10 1.0008661e-15 0
-10 -4.169356e-18 0
-10 -1.1322009e-18 0
-10 -3.7841433e-16 0
-10 8.8966683e-16 0
-10 -7.6582105e-16 0
-10 -1.2764549e-17 0
-10 7.419016e-16 0
-10 -7.6138764e-16 0
-10 -3.2031392e-17 0
-10 1.5206384e-17 0
-10 7.9179131e-16 0
-10 -7.9286427e-16 0
-10 -2.7366535e-18 0
-10 3.063587e-17 0
-10 7.3903545e-16 0
-10 -1.5841074e-15 0
-10 6.2948067e-12 0
-10 2.6798324e-09 0
-10 -8.8826051e-06 0
-10 -0.0013236875 0
-10 0.0013236875 0
-10 8.8826051e-06 0
-10 -2.6798325e-09 0
-10 -6.295012e-12 0
-10 1.0009593e-15 0
-10 -4.2458899e-18 0
-10 -1.128145e-18 0
-10 -3.7846283e-16 0
-10 8.8961025e-16 0
-10 -7.6576395e-16 0
-10 -1.2854962e-17 0
-10 7.4173195e-16 0
-10 -7.6134448e-16 0
-10 -3.2009433e-17 0
-10 1.5233475e-17 0
-10 7.9180641e-16 0
-10 -7.9284236e-16 0
-10 -2.7373472e-18 0
-10 3.0645521e-17 0
-10 7.3899673e-16 0
-10 -1.5842138e-15 0
-10 6.2948072e-12 0
-10 2.6798324e-09 0
-10 -8.8826051e-06 0
-10 -0.0013236875 0
-10 0.0013236875 0
-10 8.8826051e-06 0
-10 -2.6798325e-09 0
-10 -6.2949476e-12 0
-10 1.0707613e-15 0
-10 -2.6755696e-18 0
-10 -1.1775811e-18 0
-10 -3.7870564e-16 0
-10 8.8961246e-16 0
-10 -7.6573e-16 0
-10 -1.3131225e-17 0
-10 7.4135192e-16 0
-10 -7.6192166e-16 0
-10 -3.1637669e-17 0
-10 1.5546993e-17 0
-10 7.9207915e-16 0
-10 -7.9294552e-16 0
-10 -2.7378837e-18 0
-10 3.0736624e-17 0
-10 7.3871591e-16 0
-10 -1.584288e-15 0
-10 6.2948059e-12 0
-10 2.6798324e-09 0
-10 -8.8826051e-06 0
-10 -0.0013236875 0
-10 0.0013236875 0
-10 8.8826051e-06 0
-10 -2.6798325e-09 0
-10 -7.1075816e-12 0
-10 -8.1149114e-13 0
-10 7.3765158e-18 0
-10 -8.9050313e-19 0
-10 -3.7749408e-16 0
-10 8.8947409e-16 0
-10 -7.6550763e-16 0
-10 -1.2204979e-17 0
-10 7.4270859e-16 0
-10 -7.5942389e-16 0
-10 -3.3601199e-17 0
-10 1.4685195e-17 0
-10 7.9101722e-16 0
-10 -7.927784e-16 0
-10 -2.7389829e-18 0
-10 3.0589108e-17 0
-10 7.3965716e-16 0
-10 -1.5836922e-15 0
-10 6.2948086e-12 0
-10 2.6798324e-09 0
-10 -8.8826051e-06 0
-10 -0.0013236875 0
-10 0.0013236875 0
-10 8.8826051e-06 0
-10 -2.6798325e-09 0
-10 -6.2950429e-12 0
-9.9999999 9.658614e-16 0
-9.9999999 -4.2735631e-18 0
-9.9999999 -9.6221018e-19 0
-9.9999999 -3.77412e-16 0
-9.9999999 8.8940794e-16 0
-9.9999999 -7.6545151e-16 0
-9.9999999 -1.2168169e-17 0
-9.9999999 7.4270316e-16 0
-9.9999999 -7.5917212e-16 0
-9.9999999 -3.3822611e-17 0
-9.9999999 1.4699666e-17 0
-9.9999999 7.9094216e-16 0
-9.9999999 -7.8985184e-16 0
-9.9999999 1.242895e-19 0
-9.9999999 3.1115335e-17 0
-9.9999999 7.402882e-16 0
-9.9999999 -1.5837301e-15 0
-9.9999999 6.294809e-12 0
-9.9999999 2.6798324e-09 0
-9.9999999 -8.8826051e-06 0
-9.9999999 -0.0013236875 0
-9.9999999 0.0013236875 0
-9.9999999 8.8826048e-06 0
-9.9999999 -2.6801623e-09 0
-9.9999999 -5.4824368e-12 0
-9.9999999 8.1348673e-13 0
-9.9999999 -2.1893333e-17 0
-9.9999999 -1.3388037e-18 0
-9.9999999 -3.7913623e-16 0
-9.9999999 8.9010228e-16 0
-9.9999999 -7.6592763e-16 0
-9.9999999 -1.3164244e-17 0
-9.9999999 7.4142784e-16 0
-9.9999999 -7.6284336e-16 0
-9.9999999 -3.0593667e-17 0
-9.9999999 1.5518701e-17 0
-9.9999999 7.9237553e-16 0
-9.9999999 -1.910068e-13 0
-9.9999999 -1.9021693e-13 0
-9.9999999 -9.317317e-14 0
-9.9999999 -9.2464947e-14 0
-9.9999999 -1.5839885e-15 0
-9.9999999 6.2948055e-12 0
-9.9999999 2.6798324e-09 0
-9.9999999 -8.8826051e-06 0
-9.9999999 -0.0013236875 0
-9.9999999 0.0013236875 0
-9.9999999 8.8826051e-06 0
-9.9999999 -2.6798325e-09 0
-9.9999999 -6.2950423e-12 0
-9.9999999 9.6503182e-16 0
-9.9999999 -6.5579841e-18 0
-9.9999999 -1.1057575e-18 0
-9.9999999 -3.7825189e-16 0
-9.9999999 8.6444235e-16 0
-9.9999999 -7.9216424e-16 0
-9.9999999 -1.3451977e-17 0
-9.9999999 7.4240974e-16 0
-9.9999999 -7.6087124e-16 0
-9.9999999 -3.2059992e-17 0
-9.9999999 1.4814331e-17 0
-9.9999999 7.9153128e-16 0
-9.9999999 -7.9416923e-16 0
-9.9999998 -3.9805986e-18 0
-9.9999998 3.0134055e-17 0
-9.9999998 -1.6380145e-14 0
-9.9999998 -1.8702351e-14 0
-9.9999998 6.2948074e-12 0
-9.9999998 2.6798324e-09 0
-9.9999998 -8.8826051e-06 0
-9.9999998 -0.0013236875 0
-9.9999998 0.0013236875 0
-9.9999998 8.8826054e-06 0
-9.9999998 -2.6795028e-09 0
-9.9999998 -6.2950193e-12 0
-9.9999998 1.0003036e-15 0
-9.9999998 -4.3769169e-18 0
-9.9999998 -1.0691305e-18 0
-9.9999998 -3.7421656e-16 0
-9.9999998 2.3090607e-13 0
-9.9999998 2.2924968e-13 0
-9.9999998 -9.2395723e-18 0
-9.9999998 7.432105e-16 0
-9.9999998 -7.5859007e-16 0
-9.9999998 -2.5442606e-17 0
-9.9999998 4.4776452e-17 0
-9.9999998 8.3731396e-16 0
-9.9999998 1.894466e-13 0
-9.9999998 1.902124e-13 0
-9.9999998 9.3234886e-14 0
-9.9999998 9.3942857e-14 0
-9.9999997 -1.5840373e-15 0
-9.9999997 6.2948079e-12 0
-9.9999997 2.6798324e-09 0
-9.9999997 -8.8826052e-06 0
-9.9999997 -0.0013236875 0
-9.9999997 0.0013236875 0
-9.9999997 8.8826051e-06 0
-9.9999997 -2.6798325e-09 0
-9.9999997 -6.2950119e-12 0
-9.9999997 1.001738e-15 0
-9.9999997 -4.112874e-18 0
-9.9999997 -1.2146288e-18 0
-9.9999997 -3.7969291e-16 0
-9.9999997 8.7551121e-16 0
-9.9999996 -7.801724e-16 0
-9.9999996 -1.288498e-17 0
-9.9999996 7.4232113e-16 0
-9.9999996 -7.6006079e-16 0
-9.9999996 -3.2149876e-13 0
-9.9999996 -8.498749e-13 0
-9.9999996 -4.2916766e-13 0
-9.9999996 9.7668319e-14 0
-9.9999996 -5.4636399e-18 0
-9.9999996 3.1862725e-17 0
-9.9999996 1.7880578e-14 0
-9.9999996 1.5557331e-14 0
-9.9999996 6.2948084e-12 0
-9.9999996 2.6798324e-09 0
-9.9999996 -8.8826051e-06 0
-9.9999996 -0.0013236875 0
-9.9999996 0.0013236875 0
-9.9999996 8.8826051e-06 0
-9.9999996 -2.6798325e-09 0
-9.9999996 -6.2950104e-12 0
-9.9999996 9.9732769e-16 0
-9.9999996 -8.5520621e-18 0
-9.9999996 -1.2470152e-18 0
-9.9999996 -3.8284375e-16 0
-9.9999996 -2.2912636e-13 0
-9.9999996 -2.3078055e-13 0
-9.9999996 -1.6250215e-17 0
-9.9999996 7.4826732e-16 0
-9.9999996 -6.6433634e-16 0
-9.9999996 8.5050801e-18 0
-9.9999995 7.3610493e-18 0
-9.9999995 1.1576513e-15 0
-9.9999996 1.0133296e-13 0
-9.9999996 1.0163806e-13 0
-9.9999996 1.0166931e-13 0
-9.9999996 -4.2601963e-13 0
-9.9999996 -4.2835696e-13 0
-9.9999996 6.3964617e-12 0
-9.9999996 2.6802195e-09 0
-9.9999996 -8.8826047e-06 0
-9.9999996 -0.0013236875 0
-9.9999996 0.0013236875 0
-9.9999996 8.8826044e-06 0
-9.9999996 -2.6797312e-09 0
-9.9999996 -6.1934117e-12 0
-9.9999996 1.0233673e-13 0
-9.9999996 -4.489195e-16 0
-9.9999996 1.6792967e-18 0
-9.9999996 -3.7685141e-16 0
-9.9999996 9.2996776e-16 0
-9.9999996 -7.2551264e-16 0
-9.9999996 -1.3128589e-17 0
-9.9999996 1.0601022e-15 0
-9.9999996 -9.0496531e-13 0
-9.9999996 2.2923365e-13 0
-9.9999996 1.7648968e-12 0
-9.9999996 -1.1657301e-11 0
-9.9999996 1.3799422e-11 0
-9.9999996 1.6333265e-11 0
-9.9999996 1.6333514e-11 0
-9.9999996 1.6334225e-11 0
-9.9999995 1.6331795e-11 0
-9.9999995 2.2628386e-11 0
-9.9999995 2.696166e-09 0
-9.9999995 -8.8825888e-06 0
-9.9999995 -0.0013236875 0
-9.9999995 0.0013236875 0
-9.9999995 8.8827238e-06 0
-9.9999995 -2.6635051e-09 0
-9.9999995 1.0037441e-11 0
-9.9999995 2.6872175e-11 0
-9.9999995 8.8397537e-13 0
-9.9999995 1.0191646e-13 0
-9.9999995 1.0126798e-13 0
-9.9999995 1.0253644e-13 0
-9.9999995 1.0089392e-13 0
-9.9999995 9.1511003e-13 0
-9.9999995 -1.1274446e-11 0
-9.9999995 1.3975344e-11 0
-9.9999994 1.6410142e-11 0
-9.9999995 1.5710437e-11 0
-9.9999995 -1.6701124e-10 0
-9.9999989 4.8721979e-07 0
-9.9999989 4.8703894e-07 0
-9.9999989 4.8703824e-07 0
-9.9999989 4.8703876e-07 0
-9.9999989 4.8703876e-07 0
-9.9999989 4.8704453e-07 0
-9.9999989 4.8971778e-07 0
-9.9999989 -8.3955671e-06 0
-9.9999989 -0.0013232004 0
-9.9999916 0.0013236873 0
-9.9999989 9.3699322e-06 0
-9.9999989 4.8435913e-07 0
-9.9999989 4.8703265e-07 0
-9.9999989 4.8722073e-07 0
-9.9999991 -1.661382e-10 0
-9.9999991 1.5649723e-11 0
-9.9999991 1.6417572e-11 0
-9.9999991 1.6418778e-11 0
-9.9999991 1.6417193e-11 0
-9.9999991 1.5719386e-11 0
-9.9999992 -1.7749243e-10 0
-9.9999987 4.8722994e-07 0
-9.9999987 4.8705139e-07 0
-9.9999987 4.8704969e-07 0
-9.9999987 4.8705294e-07 0
-9.9999986 4.8707892e-07 0
-9.9999986 4.8706673e-07 0
-9.9999986 4.8706673e-07 0
-9.9999986 4.8706666e-07 0
-9.9999986 4.8706666e-07 0
-9.9999986 4.8707328e-07 0
-9.9999986 4.8974597e-07 0
-9.9999986 -8.395537e-06 0
-9.9999986 -0.0013232004 0
-9.9999913 0.0013236873 0
-9.9999986 9.3699537e-06 0
-9.9999986 4.8438909e-07 0
-9.9999986 4.8706191e-07 0
-9.9999986 4.8706743e-07 0
-9.9999986 4.8704145e-07 0
-9.9999985 4.8705199e-07 0
-9.9999985 4.8705189e-07 0
-9.9999985 4.8705189e-07 0
-9.9999985 4.8705199e-07 0
-9.9999985 4.8705065e-07 0
-9.9999985 4.8691584e-07 0
-9.9999961 2.4354104e-06 0
-9.9999961 2.4352616e-06 0
-9.9999961 2.4352611e-06 0
-9.9999961 2.435262e-06 0
-9.9999961 2.4352621e-06 0
-9.9999961 2.4352612e-06 0
-9.9999961 2.4352304e-06 0
-9.9999961 2.4352961e-06 0
-9.999996 2.4353014e-06 0
-9.999996 2.4353076e-06 0
-9.999996 2.4379683e-06 0
-9.9999956 -5.9602345e-06 0
-9.9999956 -0.0013207647 0
-9.9999517 0.0013236871 0
-9.9999955 1.1806049e-05 0
-9.9999955 2.9196783e-06 0
-9.9999955 2.9223478e-06 0
-9.9999955 2.9223533e-06 0
-9.9999955 2.9223548e-06 0
-9.9999955 2.922355e-06 0
-9.9999955 2.9223553e-06 0
-9.9999954 2.9223553e-06 0
-9.9999954 2.9223553e-06 0
-9.9999954 2.9223553e-06 0
-9.9999954 2.9223595e-06 0
-9.9999954 2.9223792e-06 0
-9.9999954 2.9223682e-06 0
-9.9999954 2.9223675e-06 0
-9.9999954 2.9223692e-06 0
-9.9999954 2.9223693e-06 0
-9.9999954 2.9223676e-06 0
-9.9999954 2.9219077e-06 0
-9.9999942 3.8968559e-06 0
-9.9999942 3.896396e-06 0
-9.9999942 3.8964004e-06 0
-9.9999942 3.8990741e-06 0
-9.9999942 -4.9862066e-06 0
-9.9999942 -0.0013197907 0
-9.9999357 0.0013236867 0
-9.9999942 1.2780428e-05 0
-9.9999942 3.8937326e-06 0
-9.9999942 3.8964023e-06 0
-9.9999942 3.8963942e-06 0
-9.9999937 4.3834732e-06 0
-9.9999936 4.3834604e-06 0
-9.9999936 4.3834593e-06 0
-9.9999936 4.383448e-06 0
-9.9999936 4.3834745e-06 0
-9.9999935 4.3834766e-06 0
-9.9999935 4.3834766e-06 0
-9.9999936 4.3834761e-06 0
-9.9999936 4.3834682e-06 0
-9.9999936 4.3834737e-06 0
-9.9999931 4.8705501e-06 0
-9.9999931 4.8705388e-06 0
-9.9999931 4.8705387e-06 0
-9.9999931 4.8705448e-06 0
-9.9999931 4.8706098e-06 0
-9.999993 4.8705822e-06 0
-9.999993 4.8705891e-06 0
-9.999993 4.8732619e-06 0
-9.999993 -4.0120195e-06 0
-9.999993 -0.0013188164 0
-9.9999289 0.0013236933 0
-10.000003 1.3268364e-05 0
-10.000002 4.8680126e-06 0
-10.000002 4.8705689e-06 0
-10.000002 4.8705776e-06 0
-10.000002 4.8705799e-06 0
-10.000002 4.870579e-06 0
-10.000002 4.8706002e-06 0
-10.000002 4.8703716e-06 0
-10.000002 5.3577489e-06 0
-10.000002 5.3575702e-06 0
-10.000002 5.357569e-06 0
-10.000002 5.3575677e-06 0
-10.000002 5.3574499e-06 0
-10.000001 5.8447211e-06 0
-10.000001 5.8446045e-06 0
-10.000001 5.8446033e-06 0
-10.000001 5.8446033e-06 0
-10.000001 5.8446033e-06 0
-10.000001 5.8446038e-06 0
-10.000001 5.8446214e-06 0
-10.000001 5.8444292e-06 0
-10.000001 5.8470923e-06 0
-10.000001 -3.0388223e-06 0
-10.000001 -0.001317849 0
-10.001155 0.0012506171 0
-10.001316 1.4748725e-05 0
-10.001316 5.8423948e-06 0
-10.001315 6.3324139e-06 0
-10.001315 6.3322118e-06 0
-10.001315 6.332211e-06 0
-10.001315 6.3322115e-06 0
-10.001315 6.3325597e-06 0
-10.001315 6.8193006e-06 0
-10.001315 6.8196723e-06 0
-10.001315 6.8196631e-06 0
-10.001315 6.8196631e-06 0
-10.001314 6.8196635e-06 0
-10.001314 6.819665e-06 0
-10.001314 6.8196819e-06 0
-10.001314 6.8196748e-06 0
-10.001314 6.8196748e-06 0
-10.001314 6.8196748e-06 0
-10.001314 6.8196748e-06 0
-10.001314 6.8196765e-06 0
-10.001314 6.819939e-06 0
-10.001315 6.3323875e-06 0
-10.001307 6.3349497e-06 0
-10.001307 -2.0823538e-06 0
-10.001234 -0.0012437988 0
-6.3187704 0.001543611 0
-6.7483294 0.00012116619 0
8.2736399 0.00010281014 0
8.273679 0.00010724873 0
8.273679 0.00010654892 0
8.273679 0.00010654892 0
8.2736773 0.00010624887 0
8.2736766 0.00010661046 0
8.2736773 0.00010646569 0
8.2736763 0.00010646577 0
8.2736763 0.0001058673 0
8.2736642 0.00011024751 0
8.2735753 0.00010984597 0
8.2736973 0.00011166279 0
8.2735681 0.00011154916 0
8.2735516 5.6301804e-05 0
8.2735414 5.6302379e-05 0
8.2735411 5.5592095e-05 0
8.2735457 5.5557289e-05 0
8.2735457 6.8234839e-05 0
8.2735444 6.8234993e-05 0
8.2735437 6.8234428e-05 0
8.2735311 6.9793424e-05 0
8.2735185 3.9411031e-05 0
8.2734315 -0.0022652757 0
10.060019 0.0014283236 0
10.048682 5.794651e-05 0
-8.2726977 -1.7731412e-06 0
-8.272758 -5.1042853e-05 0
-8.2727575 -5.1169656e-05 0
-8.2727575 -5.1169651e-05 0
-8.2727563 -5.0633365e-05 0
-8.2727559 -5.1231198e-05 0
-8.2727566 -5.0976238e-05 0
-8.2727557 -5.0976368e-05 0
-8.2727557 -5.0251599e-05 0
-8.2727482 -5.5119481e-05 0
-8.2726676 -5.4480664e-05 0
-8.2727814 -5.629816e-05 0
-8.2726609 -5.6225318e-05 0
-8.2726394 -1.4989239e-05 0
-8.2726316 -1.4989087e-05 0
-8.2726316 -1.4042468e-05 0
-8.2726378 -1.377158e-05 0
-8.2726378 -2.2899963e-05 0
-8.2726367 -2.2900378e-05 0
-8.2726363 -2.2899846e-05 0
-8.2726229 -2.5327399e-05 0
-8.2726129 -2.0450493e-05 0
-8.2725689 -0.00081994629 0
9.9999447 0.0013258123 0
10.00001 1.502723e-05 0
10.000026 6.038238e-06 0
10.000027 4.8693003e-06 0
10.000027 4.8302951e-06 0
10.000027 4.8302045e-06 0
10.000027 4.8302049e-06 0
10.000027 4.8302055e-06 0
10.000027 4.8000798e-06 0
10.000028 4.3430173e-06 0
10.000028 4.3430196e-06 0
10.000019 4.8304283e-06 0
10.000019 4.8301184e-06 0
10.000019 4.8301863e-06 0
10.000019 4.8303457e-06 0
10.000019 4.8301566e-06 0
10.000019 4.8301632e-06 0
10.000019 4.8623992e-06 0
10.000019 4.8623983e-06 0