# vtk DataFile Version 4.0
hesp visualization file
ASCII
DATASET UNSTRUCTURED_GRID
POINTS 1250 double
27.703601 -1.8933321 4
28.719996 -1.0946105 4
31.469274 2.7975816 4
28.135268 7.7748095 4
29.883614 4.2847304 4
34.047833 6.5958744 4
34.221536 1.5336079 4
35.104267 11.080719 4
30.383714 9.6667688 4
28.045049 8.9648029 4
34.603134 11.068831 4
28.49244 12.132613 4
30.077763 13.465477 4
33.292415 13.064115 4
27.428621 18.661328 4
33.498419 15.712652 4
27.703395 22.991265 4
31.588834 22.428927 4
29.182596 21.082903 4
30.683375 25.976645 4
29.344889 23.503274 4
32.861692 25.290772 4
30.882057 23.303337 4
30.67362 35.400045 4
29.989556 32.907588 4
38.291274 -6.5860433 4
27.883906 1.5876479 4
27.849924 -3.4145865 4
28.953353 5.2142801 4
29.313447 4.8576513 4
29.540349 3.6811393 4
28.89974 1.7905169 4
26.494887 5.9589899 4
29.607161 7.1326577 4
26.820515 8.8641537 4
29.440456 10.784123 4
30.637412 10.513182 4
28.675189 16.54166 4
25.946685 13.948389 4
32.329798 13.623685 4
28.40175 22.825468 4
28.616366 15.621029 4
26.456871 19.911218 4
32.989092 18.406558 4
32.710471 21.248386 4
30.714169 28.455469 4
31.513085 21.317856 4
27.0742 29.739129 4
29.700442 35.145762 4
31.945617 30.228446 4
26.869492 -0.2381104 4
29.81869 -5.8734875 4
30.382169 1.0717774 4
32.610627 6.0366342 4
32.953128 -1.1596205 4
33.627322 3.2975339 4
30.2089 1.6798661 4
31.098036 9.3238109 4
31.588955 10.580431 4
34.1968 11.645412 4
31.148922 9.6184996 4
30.140737 10.392069 4
31.968091 11.709937 4
33.033614 11.14916 4
32.23854 11.953281 4
31.849507 13.413564 4
29.367113 17.206264 4
34.062476 19.454032 4
31.108783 16.258648 4
28.737841 25.001269 4
27.727607 19.082315 4
33.744853 21.661335 4
29.89038 20.694075 4
33.213444 29.0779 4
31.231331 26.468537 4
36.213683 -10.490635 4
31.598888 -1.3009802 4
32.212336 5.4721083 4
32.649618 -0.83745137 4
27.292803 6.3008827 4
30.435182 9.4065953 4
28.036022 9.6655479 4
31.544852 11.897663 4
28.41513 11.15477 4
33.467338 11.769709 4
29.58639 15.181058 4
32.009858 9.6992743 4
29.953311 14.785478 4
31.152622 18.388086 4
31.829366 15.089617 4
32.377874 15.263164 4
29.085052 17.589813 4
33.471403 14.968175 4
30.71557 18.926313 4
31.35575 19.591506 4
34.360904 18.156854 4
31.22117 22.177272 4
29.541994 24.493358 4
29.034931 25.752244 4
32.391825 39.114829 4
33.987176 -5.8708872 4
29.979737 -5.136414 4
36.108761 4.3974285 4
33.583822 7.5672587 4
27.693076 -0.54751264 4
31.942987 8.519735 4
33.015704 5.8162214 4
30.870743 4.8339592 4
32.662254 6.5875696 4
32.505361 7.9884305 4
33.752208 7.7955168 4
32.36122 9.3437712 4
34.638005 12.077962 4
34.116662 10.34237 4
33.356529 13.760032 4
35.309698 17.632527 4
33.212284 17.378798 4
31.176497 19.855123 4
30.392296 18.634906 4
36.085438 19.230602 4
33.972255 24.67985 4
32.411973 22.110608 4
36.578016 22.475604 4
33.320551 25.906112 4
31.409831 27.8001 4
29.219225 -5.1396358 4
27.236535 -0.49882503 4
34.692847 6.9490579 4
36.345599 6.5147009 4
34.013358 3.9805736 4
30.773848 10.235305 4
33.880633 9.7170498 4
35.530016 10.561102 4
34.914147 11.323739 4
34.29275 15.386427 4
34.787855 16.154905 4
36.552242 15.160033 4
32.791611 17.843613 4
37.079973 17.660259 4
30.791304 16.287179 4
32.639217 23.102307 4
33.686511 19.649942 4
33.612309 21.991264 4
34.264062 23.882632 4
34.299892 25.807749 4
31.863384 29.028346 4
32.049103 22.071324 4
32.151137 27.853063 4
34.743233 32.576797 4
26.131085 28.990288 4
32.221674 4.8996119 4
28.868137 -7.4062251 4
36.517804 5.2885379 4
32.462243 1.4525064 4
31.302447 3.0197223 4
28.795593 5.7707828 4
32.015949 7.421197 4
31.823063 10.163819 4
31.760687 12.379044 4
29.366535 9.9036654 4
32.477548 13.147736 4
29.341946 13.296149 4
30.751236 13.451284 4
34.389871 16.270052 4
30.223605 14.445597 4
31.779787 17.0579 4
30.187803 17.064743 4
31.690843 20.50561 4
32.377829 24.463664 4
31.124061 21.553474 4
31.332433 24.041912 4
34.723357 24.892093 4
33.097581 27.061362 4
35.086522 23.925805 4
28.724603 31.507629 4
40.957686 -3.8746199 4
31.574061 2.1935053 4
32.62042 -0.16848621 4
35.972145 4.6042376 4
32.627301 10.734572 4
30.098371 0.42155349 4
32.442846 7.5150926 4
28.34888 8.2380008 4
36.181199 8.1298724 4
37.084187 9.2651021 4
32.801135 12.828617 4
31.973552 13.06836 4
32.684846 16.707482 4
33.033718 13.640757 4
37.119423 14.382542 4
33.383915 20.00181 4
35.917242 16.725317 4
31.910453 24.010286 4
33.515036 21.480857 4
29.981177 22.984288 4
31.747969 22.13231 4
29.304949 27.254211 4
35.615922 27.739613 4
31.290683 28.137091 4
39.55891 34.392158 4
33.456907 2.4792258 4
32.92437 2.234051 4
34.008809 1.2895298 4
30.575659 -0.46344292 4
33.097625 4.1268437 4
33.204548 2.9254883 4
34.172865 7.3790193 4
34.722203 10.747495 4
33.779524 12.149199 4
35.691273 12.168265 4
33.706336 16.758203 4
34.73817 15.667407 4
31.585966 15.40201 4
32.649457 14.087203 4
35.341895 18.116644 4
37.136793 18.404641 4
30.577378 15.185302 4
30.888183 14.959844 4
31.800264 15.920661 4
35.157469 19.786671 4
34.366363 24.658254 4
35.165454 26.876367 4
35.381936 23.823796 4
35.475664 28.408622 4
32.990653 27.30948 4
32.245122 -0.85205373 4
28.617488 2.1988222 4
34.490015 1.673557 4
34.513004 8.6976899 4
32.500748 6.3451672 4
34.791604 7.6499043 4
35.785413 6.4097091 4
35.173209 9.4632158 4
34.993803 11.662059 4
36.806389 13.429308 4
34.908404 12.226133 4
33.148996 15.116322 4
34.407209 16.529063 4
35.165379 15.335826 4
33.19163 17.932966 4
37.177821 20.343735 4
36.742852 20.578337 4
35.884807 24.292872 4
35.172135 20.986729 4
37.736056 24.233565 4
33.039972 25.464077 4
34.967126 26.278463 4
33.763142 27.609345 4
32.643104 28.999936 4
29.33144 29.117352 4
30.638537 -2.5999022 4
32.652836 1.7902235 4
32.690892 2.6784771 4
34.412758 1.2084925 4
38.182439 4.8485368 4
34.473899 3.9387645 4
37.037583 6.7283184 4
34.980185 6.6626277 4
34.280932 10.031363 4
35.603149 9.3290764 4
35.429884 13.13065 4
36.205517 14.11464 4
38.009232 11.846059 4
37.963687 12.73334 4
33.766875 16.464937 4
32.903109 17.239388 4
35.270744 15.769124 4
34.690799 20.135861 4
34.044951 19.985197 4
35.133444 20.445615 4
37.92339 26.700906 4
33.778058 22.845743 4
33.46982 23.86677 4
33.928349 28.232142 4
30.640468 31.857983 4
37.728767 -5.9005782 4
31.852637 0.95477162 4
32.966219 3.3058744 4
37.538977 5.8679646 4
32.892341 6.3828633 4
38.311726 5.9025198 4
34.092816 7.8724937 4
31.889325 9.4497839 4
34.842814 9.8746314 4
32.641388 9.4793319 4
33.821931 14.818672 4
34.71269 13.444482 4
34.876226 16.416582 4
35.412483 13.935552 4
36.485765 18.202395 4
36.554712 21.338367 4
35.229803 20.205591 4
36.854825 21.534062 4
36.127648 22.312919 4
32.760248 20.247142 4
33.68297 23.48674 4
35.203872 24.384301 4
30.870617 27.760912 4
34.302634 30.101307 4
38.691841 33.175975 4
34.072352 0.14770073 4
35.393349 2.6676807 4
35.111635 1.9149063 4
32.872173 4.6319437 4
37.247365 4.717061 4
36.480067 6.8536877 4
36.650663 8.4067055 4
40.383325 10.083372 4
37.141995 10.56102 4
36.515344 11.432043 4
36.515417 12.562713 4
36.51522 13.669987 4
36.526974 14.824619 4
36.521204 15.912419 4
36.631244 16.818328 4
43.303915 18.7008 4
37.130365 21.412416 4
36.611884 22.150755 4
34.489764 23.263658 4
36.970317 24.967296 4
36.075094 27.648619 4
35.939976 27.130405 4
38.648383 26.223761 4
36.121423 31.028515 4
32.913975 29.610242 4
34.545107 0.38385014 4
33.941185 2.3068711 4
37.276275 4.2810864 4
36.152626 2.4861188 4
34.066782 5.5993523 4
38.720852 7.2763833 4
34.864947 7.9781487 4
37.660091 9.679833 4
37.155126 8.6395783 4
36.922634 9.501203 4
36.197049 10.68448 4
34.739824 13.179132 4
35.139355 14.708722 4
37.14715 14.011369 4
36.747068 18.053391 4
37.032048 16.608713 4
37.318052 18.224232 4
37.912073 16.514787 4
37.114578 19.496693 4
37.141203 20.635672 4
37.332716 21.926527 4
36.868702 23.242772 4
37.066931 23.985648 4
37.992713 28.223834 4
35.378202 29.102044 4
35.136915 1.1289002 4
35.794742 1.4387099 4
36.803552 3.8378231 4
37.161111 2.2847827 4
35.168342 5.6597606 4
37.464542 7.3494422 4
36.683511 7.0520535 4
35.676525 8.9164105 4
35.386323 10.78289 4
37.024458 11.053057 4
35.073079 11.985803 4
35.599599 12.510077 4
36.243485 14.397875 4
35.638952 15.571584 4
35.258715 16.846276 4
35.403324 18.631756 4
35.972385 20.160521 4
35.469429 20.957633 4
36.117704 21.647024 4
36.756021 24.759741 4
37.353258 23.828009 4
36.041223 25.295471 4
35.207486 23.248882 4
36.381686 28.914902 4
37.568006 28.794633 4
36.259306 1.1286161 4
36.462856 2.1258745 4
37.880337 2.6746225 4
36.310483 4.1755368 4
37.240858 5.2608723 4
38.068655 7.8065065 4
38.153034 9.8917166 4
38.147655 11.032078 4
38.146452 12.154971 4
38.147536 13.277833 4
38.147828 14.40044 4
38.147843 15.522962 4
38.153785 16.65349 4
38.512547 17.64113 4
38.576021 18.585736 4
38.817322 18.441829 4
37.838608 17.491578 4
37.900077 18.976024 4
38.349805 19.691938 4
38.344029 20.816676 4
38.344195 21.94 4
38.409133 26.493151 4
38.807504 27.273965 4
36.253868 26.939113 4
36.240712 28.036834 4
37.381855 1.128542 4
37.562188 2.1780707 4
37.606976 3.669238 4
37.389195 4.497526 4
38.023061 5.7027297 4
37.931117 7.0840218 4
39.77032 10.091015 4
37.383668 8.9728091 4
37.382208 10.114835 4
37.385021 11.216897 4
37.383865 12.342736 4
37.383783 13.458652 4
37.384817 14.584125 4
37.38554 15.706971 4
40.096495 15.973662 4
37.429298 17.267467 4
37.387047 19.081674 4
37.733359 20.191773 4
37.550101 21.313115 4
37.362731 22.43548 4
37.512359 23.392607 4
38.396584 24.983559 4
37.999169 24.374587 4
37.763949 28.151505 4
37.26227 28.159032 4
38.504318 1.1285369 4
38.504299 2.2449429 4
38.504272 3.3673795 4
38.504175 4.4899394 4
38.503337 5.6126097 4
38.503525 6.7360986 4
38.503542 7.857583 4
39.868162 9.694286 4
39.866782 10.861781 4
39.867078 11.984296 4
39.866939 13.107342 4
39.867074 14.229839 4
39.868418 15.357718 4
39.856468 16.409692 4
39.890359 17.447407 4
40.322412 19.123959 4
39.513914 20.013647 4
38.502578 20.203132 4
38.502534 21.325893 4
38.502551 22.448325 4
38.504375 23.571874 4
40.631443 23.142272 4
38.659929 25.598844 4
39.457821 26.678491 4
38.905516 28.473265 4
39.626794 1.1285365 4
39.626782 2.2449314 4
[...]
POINT_DATA 1250
SCALARS m double
LOOKUP_TABLE default
1
1
1
1
1
1
1
1
1
1
1
1
1
1
1
1
1
1
1
1
1
1
1
1
1
1
1
1
1
1
1
1
1
1
1
1
1
1
1
1
1
1
1
1
1
1
1
1
1
1
1
1
1
1
1
1
1
1
1
1
1
1
1
1
1
1
1
1
1
1
1
1
1
1
1
1
1
1
1
1
1
1
1
1
1
1
1
1
1
1
1
1
1
1
1
1
1
1
1
1
1
1
1
1
1
1
1
1
1
1
1
1
1
1
1
1
1
1
1
1
1
1
1
1
1
1
1
1
1
1
1
1
1
1
1
1
1
1
1
1
1
1
1
1
1
1
1
1
1
1
1
1
1
1
1
1
1
1
1
1
1
1
1
1
1
1
1
1
1
1
1
1
1
1
1
1
1
1
1
1
1
1
1
1
1
1
1
1
1
1
1
1
1
1
1
1
1
1
1
1
1
1
1
1
1
1
1
1
1
1
1
1
1
1
1
1
1
1
1
1
1
1
1
1
1
1
1
1
1
1
1
1
1
1
1
1
1
1
1
1
1
1
1
1
1
1
1
1
1
1
1
1
1
1
1
1
1
1
1
1
1
1
1
1
1
1
1
1
1
1
1
1
1
1
1
1
1
1
1
1
1
1
1
1
1
1
1
1
1
1
1
1
1
1
1
1
1
1
1
1
1
1
1
1
1
1
1
1
1
1
1
1
1
1
1
1
1
1
1
1
1
1
1
1
1
1
1
1
1
1
1
1
1
1
1
1
1
1
1
1
1
1
1
1
1
1
1
1
1
1
1
1
1
1
1
1
1
1
1
1
1
1
1
1
1
1
1
1
1
1
1
1
1
1
1
1
1
1
1
1
1
1
1
1
1
1
1
1
1
1
1
1
1
1
1
1
1
1
1
1
1
1
1
1
1
1
1
1
1
1
1
1
1
1
1
1
1
1
1
1
1
1
1
1
1
1
1
1
1
1
1
1
1
1
1
1
1
1
1
1
1
1
1
1
1
1
1
1
1
1
1
1
1
1
1
1
1
1
1
1
1
1
1
1
1
1
1
1
1
1
1
1
1
1
1
1
1
1
1
1
1
1
1
1
1
1
1
1
1
1
1
1
1
1
1
1
1
1
1
1
1
1
1
1
1
1
1
1
1
1
1
1
1
1
1
1
1
1
1
1
1
1
1
1
1
1
1
1
1
1
1
1
1
1
1
1
1
1
1
1
1
1
1
1
1
1
1
1
1
1
1
1
1
1
1
1
1
1
1
1
1
1
1
1
1
1
1
1
1
1
1
1
1
1
1
1
1
1
1
1
1
1
1
1
1
1
1
1
1
1
1
1
1
1
1
1
1
1
1
1
1
1
1
1
1
1
1
1
1
1
1
1
1
1
1
1
1
1
1
1
1
1
1
1
1
1
1
1
1
1
1
1
1
1
1
1
1
1
1
1
1
1
1
1
1
1
1
1
1
1
1
1
1
1
1
1
1
1
1
1
1
1
1
1
1
1
1
1
1
1
1
1
1
1
1
1
1
1
1
1
1
1
1
1
1
1
1
1
1
1
1
1
1
1
1
1
1
1
1
1
1
1
1
1
1
1
1
1
1
1
1
1
1
1
1
1
1
1
1
1
1
1
1
1
1
1
1
1
1
1
1
1
1
1
1
1
1
1
1
1
1
1
1
1
1
1
1
1
1
1
1
1
1
1
1
1
1
1
1
1
1
1
1
1
1
1
1
1
1
1
1
1
1
1
1
1
1
1
1
1
1
1
1
1
1
1
1
1
1
1
1
1
1
1
1
1
1
1
1
1
1
1
1
1
1
1
1
1
1
1
1
1
1
1
1
1
1
1
1
1
1
1
1
1
1
1
1
1
1
1
1
1
1
1
1
1
1
1
1
1
1
1
1
1
1
1
1
1
1
1
1
1
1
1
1
1
1
1
1
1
1
1
1
1
1
1
1
1
1
1
1
1
1
1
1
1
1
1
1
1
1
1
1
1
1
1
1
1
1
1
1
1
1
1
1
1
1
1
1
1
1
1
1
1
1
1
1
1
1
1
1
1
1
1
1
1
1
1
1
1
1
1
1
1
1
1
1
1
1
1
1
1
1
1
1
1
1
1
1
1
1
1
1
1
1
1
1
1
1
1
1
1
1
1
1
1
1
1
1
1
1
1
1
1
1
1
1
1
1
1
1
1
1
1
1
1
1
1
1
1
1
1
1
1
1
1
1
1
1
1
1
1
1
1
1
1
1
1
1
1
1
1
1
1
1
1
1
1
1
1
1
1
1
1
1
1
1
1
1
1
1
1
1
1
1
1
1
1
1
1
1
1
1
1
1
1
1
1
1
1
1
1
1
1
1
1
1
1
1
1
1
1
1
1
1
1
1
1
1
1
1
1
1
1
1
1
1
1
1
1
1
1
1
1
1
1
1
1
1
1
1
1
1
1
1
1
1
1
1
1
1
1
1
1
1
1
1
1
1
1
1
1
1
1
1
1
1
1
1
1
1
1
1
1
1
1
1
1
1
1
1
1
1
1
1
1
1
1
1
1
1
1
1
1
1
1
1
1
1
1
1
1
1
1
1
1
1
1
1
1
1
1
1
1
1
1
1
1
1
1
1
1
1
1
1
1
1
1
1
1
1
1
1
1
1
1
1
1
1
1
1
1
1
1
1
1
1
1
1
1
1
1
1
1
1
1
1
1
1
1
1
1
1
1
1
1
1
1
1
1
1
1
1
1
1
1
1
1
1
1
1
1
1
1
1
1
1
1
1
1
1
1
1
1
1
1
1
1
1
1
1
1
1
1
1
1
1
1
1
1
VECTORS v double
-1.8441507 -6.980392 0
-4.5075548 -4.9955047 0
-3.4614391 -10.745721 0
-0.94639133 -13.745909 0
-7.3424337 5.2282165 0
9.7608486 -1.840314 0
-3.1089579 4.926575 0
-6.3214536 18.871308 0
-12.882769 5.7738663 0
4.4468212 2.222148 0
-0.78722362 6.2789511 0
6.4315709 12.355211 0
-5.3402304 -2.3092404 0
7.149539 -13.69413 0
-6.3602874 8.4198403 0
-2.2400717 4.7809791 0
13.306708 1.0624487 0
18.181231 -9.7054787 0
-2.4176547 -4.9935605 0
0.1451398 12.39219 0
-1.3105624 6.9681813 0
-10.079303 -1.1003867 0
4.8196334 -3.9436351 0
0.20912759 22.962505 0
1.6645872 10.738866 0
8.841107 -9.0834895 0
-12.120757 -4.0786433 0
-4.8730924 -9.0167842 0
7.6624435 1.8978396 0
-2.8739439 3.8585202 0
-3.3163411 -1.8439751 0
6.942978 -2.6750816 0
-9.7490217 4.002914 0
-15.010526 -2.8151846 0
12.171384 -3.1114601 0
-9.1746667 -5.8898968 0
10.596634 6.0378459 0
-4.9341942 6.8080779 0
-14.049154 24.87311 0
-6.0040492 -0.95757636 0
-4.7428554 4.3737756 0
9.943752 -4.6866751 0
-7.9350216 -0.98704609 0
19.034115 -11.983359 0
9.7820601 7.9500927 0
-8.491366 4.3333105 0
-5.0648422 -1.3960192 0
-2.338081 2.5196469 0
1.469262 13.663651 0
-7.0641344 8.50053 0
5.4576607 -11.162852 0
3.1099295 -15.907825 0
-5.7306526 -7.8485524 0
-5.7926058 -12.814211 0
10.802446 -12.591991 0
-7.5804297 1.0632008 0
-11.219049 -4.6992422 0
2.6812644 4.1637619 0
6.8835195 6.2113138 0
0.52121326 3.2687056 0
-10.932337 -11.419835 0
8.5624363 -13.343446 0
-0.73872116 -0.1942412 0
-0.73614282 0.68578353 0
3.7352703 6.8297347 0
2.3006229 -6.1000188 0
8.9196964 -12.886548 0
11.54147 0.34480163 0
-8.3405916 7.2879412 0
10.467727 3.9575893 0
2.2666565 3.2035803 0
6.6561289 -5.9409018 0
2.4285704 -9.7469876 0
6.3597897 6.0511021 0
-2.1434201 -0.93045764 0
3.9466542 -13.879275 0
-3.7423369 -5.2877409 0
-0.92623541 -0.82074029 0
3.3588294 -11.993115 0
-0.066231058 5.962297 0
-3.388115 5.5522244 0
-8.479917 -1.701087 0
5.7210984 2.5253325 0
3.4237728 1.0554238 0
-2.473496 -4.4920019 0
-0.52018605 -1.1739661 0
-8.4738678 -5.8521882 0
-3.1984816 -4.9559996 0
8.8236056 -7.8036634 0
6.9960081 -11.74492 0
5.2989399 -2.8742301 0
1.1244533 1.6608068 0
-1.1190196 -3.1147822 0
3.2931507 -1.7469484 0
-9.5648606 -2.0799284 0
3.079816 -8.2245471 0
-6.1668884 2.1717478 0
6.3835253 9.0953754 0
3.7422368 -3.9225756 0
0.47115582 14.494986 0
3.3724381 -12.746342 0
-5.5361099 -14.764419 0
-2.3224831 6.2214971 0
-2.969441 6.2403404 0
-7.3822791 -11.753161 0
-13.927815 -1.0168808 0
5.8764943 3.0288948 0
-7.180648 -7.920794 0
16.307993 -5.0187776 0
5.9614686 -7.8644066 0
0.50805856 0.73839298 0
-17.414482 -1.3160761 0
-4.5266547 6.0397975 0
-3.7154514 -19.081639 0
-1.4673163 -2.0733812 0
17.882732 1.6421206 0
2.6662484 -1.4039875 0
-12.088786 0.11944127 0
4.4121291 -0.14339676 0
4.7015584 -4.752081 0
1.4303522 12.201437 0
2.917837 15.329352 0
8.5400284 1.6562101 0
-5.7723112 0.91049987 0
-7.9708405 0.49372534 0
-2.3847597 -8.9896184 0
-10.814438 -9.9907829 0
3.2085058 2.438233 0
3.3235753 -7.447026 0
1.1427183 -7.5722449 0
-8.8085897 9.9870361 0
-7.4391411 -0.63186918 0
-2.9083919 4.8900711 0
-1.4638788 -8.5095811 0
10.854906 8.2931639 0
1.2783975 7.3456252 0
10.042459 7.0825465 0
-5.9964303 9.8554592 0
6.7519973 6.9571671 0
-5.008901 -15.493688 0
-8.1504345 5.0912285 0
-8.232291 2.483268 0
-3.0883686 0.2649734 0
2.1147501 8.549177 0
-5.9214901 6.6071565 0
4.8406388 11.832453 0
1.2801405 -0.34010601 0
4.4729115 1.171304 0
2.7835594 9.300456 0
-9.1954739 1.1674913 0
-0.34204247 12.911231 0
-7.1221654 -15.017631 0
3.0964819 -15.551942 0
-0.27779895 -3.7861928 0
2.7632828 -13.321405 0
2.4050368 1.68623 0
6.8772306 -4.3287156 0
-4.7947053 6.3367308 0
10.024763 9.9284242 0
0.35183317 -4.9813402 0
-1.3725604 2.5239125 0
-5.3077998 3.3985197 0
0.20873751 -6.483067 0
6.678006 4.8271177 0
-1.9054867 7.4995728 0
13.732294 -6.3019175 0
-0.48870281 8.9321305 0
0.65259065 5.6240359 0
3.0100149 3.8599039 0
4.2519772 -0.9288188 0
7.4130568 -1.8500358 0
-4.3613863 7.2251829 0
1.8762528 3.8104449 0
2.8039843 -0.26582288 0
-9.1911102 7.1057297 0
7.9152496 -6.5258364 0
-12.402868 -5.1439399 0
2.1220074 -16.806431 0
-1.6225617 -5.3171277 0
-11.76242 8.9615734 0
-4.8687789 -16.334177 0
-4.5087749 -3.8720372 0
-9.9389372 -12.548867 0
11.695936 -6.0977721 0
1.3325404 -2.6855141 0
-4.8590847 -2.3496977 0
-8.9524632 -1.7199099 0
-12.061852 5.4689005 0
3.085051 1.0296719 0
6.8642104 -5.8006245 0
2.1526956 7.2759367 0
9.5158348 -14.640297 0
-11.895816 -4.0310791 0
10.823218 -1.0008349 0
-7.8365512 -1.0683302 0
5.7640353 -6.1949401 0
-9.0660494 3.1795507 0
3.5161639 5.354922 0
5.4845498 9.3550048 0
6.2746639 8.8215669 0
3.1279621 -0.70911053 0
1.6244254 4.2650742 0
-0.71400883 0.25786898 0
6.3356341 -18.451101 0
-11.675184 -2.7039747 0
-2.9124146 11.136463 0
8.9568388 -12.447742 0
13.520303 -7.2868858 0
10.772961 -10.87905 0
3.9616107 -1.9191499 0
7.8638116 8.9102949 0
-6.945273 7.3097194 0
-5.9433841 -3.8204379 0
-5.5498754 -18.864187 0
-5.9289072 1.0709151 0
13.560215 -5.9211965 0
-6.9044962 -6.0211249 0
4.3636214 -15.855633 0
14.20062 -4.8737271 0
7.0818757 8.1071426 0
-13.249922 9.2077582 0
3.3920858 4.3811834 0
-2.7637877 -3.3086949 0
-0.19340928 6.1250689 0
-9.9984582 7.1598671 0
2.4476351 -1.0151189 0
-9.6436649 2.5250862 0
2.8826311 -6.2638652 0
-6.4031501 8.3850338 0
-2.649468 -3.1553451 0
-1.8013538 1.9132461 0
-10.602539 5.7477295 0
9.420889 6.5218768 0
-5.2507582 7.8776532 0
3.2209346 5.1228019 0
3.249685 -0.49890461 0
-6.7230768 19.078884 0
-7.646842 4.106587 0
7.9952507 -10.254583 0
-6.0271493 -4.4081503 0
-6.2995306 -5.6584666 0
-6.2101099 -3.0538881 0
-5.7096717 12.885102 0
-7.4138147 -5.1942425 0
0.66217407 -0.17793968 0
0.37568791 7.2261159 0
-8.2459056 -4.1910217 0
-8.2162736 -2.0333943 0
-1.5098424 -2.5106548 0
-10.633763 6.0409159 0
-9.366951 -11.171039 0
-2.9847988 -10.264435 0
-1.3964932 -5.2748701 0
-13.671929 -12.408743 0
4.9764726 0.78078387 0
-7.8133945 -3.8150355 0
1.669878 0.42132986 0
-5.2158095 -10.324385 0
-1.9287787 6.2005435 0
2.0781302 -10.954415 0
10.659241 8.8899938 0
1.3831225 2.8346509 0
5.0374296 -3.9370803 0
4.7447067 -5.3098278 0
-11.79341 5.0063634 0
-10.013127 8.8375729 0
-3.8838364 -14.886952 0
5.101423 13.783287 0
2.1443711 4.3368249 0
-7.5939741 2.0399726 0
0.76522186 -2.2525116 0
5.9282786 -6.5657341 0
8.07693 -12.292186 0
-8.7715707 3.1580642 0
-10.026515 9.1836993 0
0.83022079 -12.771195 0
-7.705104 -5.6456221 0
-0.88625881 -0.019545211 0
-5.8592143 -3.7650205 0
1.5464053 0.31071874 0
8.3455879 -5.9428252 0
6.058494 -3.2295797 0
-7.0019167 -10.421052 0
0.21085615 -4.1114659 0
3.8760132 -7.2242126 0
-10.034301 1.1556175 0
-3.0446419 4.6246856 0
8.1963178 12.152161 0
-7.9379714 -3.1813659 0
10.35207 4.2192673 0
4.0035287 12.215569 0
-6.1985716 -3.7306758 0
3.4361767 6.0116787 0
7.9016333 -2.5258719 0
-0.21656721 -9.5417829 0
1.4409593 -3.0729382 0
6.4946743 -7.2782141 0
-13.427399 7.7150063 0
-12.560738 8.7671523 0
3.3785937 9.8879265 0
-0.92702639 -7.6810645 0
-12.803216 -2.9924063 0
10.281193 -16.167239 0
-10.127578 1.2156919 0
-9.9679181 -5.3639713 0
-14.714343 -10.742091 0
-7.1429056 2.2445076 0
14.159146 2.1001682 0
0.25652085 -4.7106946 0
-8.4734875 -2.8248135 0
-8.4795512 -2.7018949 0
-8.427238 -2.9864592 0
-7.4661454 -3.678709 0
-8.4611288 -2.8517108 0
-6.0333948 -6.7339269 0
13.981872 1.9901718 0
-10.15049 4.5575394 0
-8.1829475 1.4911985 0
-10.830031 -4.746258 0
-4.8257401 6.5814785 0
-4.9504999 9.5017307 0
0.93509272 4.6409056 0
-2.5814627 5.6326437 0
-4.5674845 9.5568596 0
-9.9248832 5.7843486 0
0.37890607 -14.614027 0
-10.373389 -0.17976273 0
0.44090319 -1.9547098 0
-5.4180763 7.5190224 0
-9.7476316 0.082511686 0
5.6640404 2.9340026 0
-10.496927 0.79293938 0
6.8604165 8.1742929 0
-1.2349747 0.20471262 0
-3.0109571 -8.6422816 0
-2.3078417 -5.8513547 0
-8.5017493 -2.4341138 0
-5.8404618 -0.54504701 0
3.8833287 -7.9426103 0
5.0669854 3.5391911 0
-12.068225 -3.2236185 0
-1.8252771 -2.7664364 0
-2.1558958 -8.4782183 0
-5.217239 -3.1082398 0
-1.3060626 8.5298724 0
-0.59612748 -0.63671573 0
-7.7578959 2.2153533 0
-11.555893 -1.7248758 0
-12.606769 5.9172909 0
-1.5042657 6.9858886 0
-10.008909 0.019148719 0
-3.6845331 -7.7062341 0
-1.1565676 3.3814177 0
-10.936954 -2.4110368 0
-9.6757929 0.40971435 0
1.1502115 -6.8807694 0
-4.8032486 -6.7452199 0
-9.5731786 0.38959307 0
8.6286802 -4.0682281 0
0.39633396 4.0564932 0
-8.8468314 3.7235812 0
-5.5159248 -7.6762245 0
5.3552981 4.634052 0
-1.7987678 -1.4006642 0
-8.1578139 0.83849087 0
-6.8571363 8.7552549 0
-1.2173139 2.8459943 0
3.8924827 5.8938513 0
-4.7380178 -0.6236596 0
5.0571498 8.2682343 0
-4.4285477 2.6492467 0
-10.240698 -1.2802261 0
-9.1747486 -9.0456186 0
-3.9119954 9.2315032 0
0.087815336 3.118867 0
-10.007843 0.016462681 0
2.0829991 -7.352747 0
-1.7117815 -6.2169215 0
-4.869884 -5.3199816 0
-2.5687174 -3.4194114 0
3.7031217 0.17774682 0
-10.875673 5.8265337 0
-10.929656 5.9523762 0
-11.017705 5.9238324 0
-10.945351 5.9457776 0
-10.928186 5.9627004 0
-10.927828 5.963275 0
-9.6717931 6.5257896 0
2.4950362 1.8311404 0
-5.3579041 -1.3107305 0
1.500977 -8.0392498 0
-14.536413 -5.9535817 0
-14.107379 2.5591671 0
-0.33913053 -9.5898551 0
-0.26749921 -9.4860009 0
-0.25938911 -9.4756214 0
1.7094105 9.9556588 0
6.2389541 6.9365472 0
-10.172695 0.069344735 0
-10.247828 -0.06260657 0
-10.000054 0.010682079 0
1.7744206 -4.3466938 0
-7.1363808 3.8452467 0
-4.9864813 4.8894924 0
-5.0915113 0.37081233 0
-2.624625 5.1100648 0
2.0335362 11.111286 0
-10.094478 -0.032192895 0
-10.001053 0.10849586 0
-10.027768 -0.064121374 0
-9.9556664 0.02684601 0
-10.00659 -0.10582149 0
-10.051331 -0.07852157 0
-9.9740835 -0.039346315 0
7.987925 -6.656042 0
-9.9236594 -2.9762052 0
-9.8877384 0.077048242 0
0.89849445 -0.38252941 0
-1.003155 -0.22334909 0
-10.17663 -0.19739103 0
-4.591702 -6.7643935 0
0.25349156 2.8023267 0
-12.042618 -2.4323416 0
-0.98772835 13.037199 0
-16.839594 5.7451288 0
-10.000014 0.01046843 0
-10.001393 0.00079299429 0
-10.001609 -0.00032596186 0
-10.015586 0.012820245 0
-10.078909 0.048756985 0
-10.022889 0.064076773 0
-10.030769 -0.013440522 0
-10.176698 1.8421047 0
-10.02417 2.4176506 0
-10.021188 2.4208449 0
-10.02179 2.4311312 0
-10.020438 2.4315745 0
-10.000161 2.5277206 0
-9.8555165 1.9561583 0
-9.8097332 -0.21715204 0
-1.665965 9.7737743 0
-9.0337369 -0.82560138 0
-10.071058 -0.058963338 0
-10.06899 -0.052925766 0
-10.067775 -0.0565412 0
-10.000405 0.0017084831 0
-7.7930457 -9.2936955 0
-5.9001363 -5.7563335 0
-9.1300717 -3.2453776 0
-3.9676751 6.2542597 0
-9.9999648 0.010445814 0
-10.000003 -4.5289815e-05 0
-10.000005 7.2828559e-07 0
-10.000022 9.5569989e-06 0
-10.00006 1.2026559e-05 0
-10.000173 7.8539631e-05 0
-9.9979674 0.0022003071 0
-1.7542676 -7.213481 0
7.0507038 0.48741827 0
6.8646142 0.34719468 0
6.8683328 0.348444 0
6.8644222 0.34011152 0
6.865869 0.33986185 0
6.8595378 0.26387723 0
6.698019 -0.61306261 0
3.9727233 -5.062923 0
-9.9458018 -0.054762695 0
-1.3484479 10.203536 0
-9.9999735 -0.00054645001 0
-10.001089 0.0061226085 0
-11.827149 -5.3530106 0
-10.005015 -0.0079111055 0
-10.000819 0.0014126383 0
-0.53758726 2.5351791 0
-10.001453 -0.010300033 0
-9.9999311 0.010445171 0
-9.9999896 -4.6343694e-05 0
-9.9999897 3.024227e-06 0
-9.9999897 3.8966209e-06 0
-9.9999898 3.9209454e-06 0
-9.9999978 2.7950111e-05 0
-10.017668 0.023411294 0
-10.006506 -0.0022735553 0
-10.088557 0.55989322 0
-10.030996 -0.17157839 0
-10.030869 -0.17128748 0
-10.030809 -0.17353366 0
-10.030795 -0.1735332 0
-10.030746 -0.19098575 0
-9.9666027 2.2164587 0
-7.1153602 8.0124602 0
-10.045421 -0.018532408 0
-10.00046 -2.6341098e-05 0
-10.00003 -2.3010243e-05 0
-10.000446 0.0022912225 0
4.7026399 3.481825 0
-9.9999913 -0.00022635841 0
-10.000044 6.1725073e-05 0
-10.009894 0.0021640328 0
-10.000093 -0.010583971 0
-9.9998923 0.010445152 0
-9.9999851 -4.3801209e-05 0
-9.9999851 5.4724378e-06 0
-9.9999851 6.3454189e-06 0
-9.9999851 6.3445966e-06 0
-9.9999878 7.2537599e-06 0
-10.000017 1.7404565e-05 0
-10.000077 4.4310112e-05 0
-10.000343 -2.8767374e-05 0
-10.0003 -3.2464781e-05 0
-10.000297 -3.0234471e-05 0
-10.000296 -3.0163196e-05 0
-10.000287 -2.1365205e-05 0
-10.000273 -3.0766723e-05 0
-10.000276 -4.0119986e-06 0
-10.001409 0.010230715 0
-9.9988335 -0.040030846 0
-9.9999794 -1.5434251e-05 0
-9.9999748 1.7692771e-05 0
-10.00001 5.9045529e-05 0
-10.007836 0.0015797196 0
-10.000033 -7.4815729e-05 0
-9.9999757 1.6374781e-05 0
-9.9999822 6.6993235e-05 0
-9.9999756 -0.010430888 0
-9.9997074 0.010445004 0
-9.9999696 -3.2344425e-05 0
-9.9999693 1.6656326e-05 0
-9.9999693 1.8017882e-05 0
-9.9999681 1.9000218e-05 0
-9.9999682 1.8993484e-05 0
-9.9999682 1.8993616e-05 0
-9.9999697 1.8797392e-05 0
-9.9999709 1.915083e-05 0
-9.9999703 1.9065757e-05 0
-9.9999702 1.9607626e-05 0
-9.9999701 1.9593243e-05 0
-9.9999702 1.9626524e-05 0
-9.9999696 1.9574609e-05 0
-9.9999734 2.9505706e-05 0
-10.000561 0.0036283712 0
-9.9975997 -0.087339705 0
-9.9999726 -7.3021699e-06 0
-9.9999654 2.1362144e-05 0
-9.9999612 2.8662877e-05 0
-9.9999665 2.7590487e-05 0
-9.9999612 2.6083543e-05 0
-9.9999579 2.9120124e-05 0
-9.9999578 7.856551e-05 0
-9.999957 -0.010416316 0
-9.9995253 0.010444889 0
-9.9999556 -2.0993174e-05 0
-9.9999558 2.7847544e-05 0
-9.9999558 2.9220569e-05 0
-9.9999547 3.0172178e-05 0
-9.9999536 3.1175925e-05 0
-9.9999535 3.1159228e-05 0
-9.9999534 3.1160177e-05 0
-9.9999534 3.1162187e-05 0
-9.9999534 3.1165366e-05 0
-9.9999528 3.1159614e-05 0
-9.9999528 3.1659674e-05 0
-9.9999522 3.1650998e-05 0
-9.9999522 3.2130791e-05 0
-9.9999537 3.372124e-05 0
-10.000008 7.1661261e-05 0
-10.000132 -4.2113101e-05 0
-9.9999538 2.8725019e-05 0
-9.9999482 3.5549236e-05 0
-9.9999484 3.5553345e-05 0
-9.9999484 3.554858e-05 0
-9.9999485 3.5547204e-05 0
-9.9999485 3.6426463e-05 0
-9.9999485 8.5882985e-05 0
-9.9999481 -0.010409458 0
-9.9993761 0.010448124 0
-9.9998986 -2.0156749e-05 0
-9.9998972 2.983607e-05 0
-9.9998967 3.1196235e-05 0
-9.9998962 3.1179002e-05 0
-9.9998947 3.2144226e-05 0
-9.999894 3.3628701e-05 0
-9.999885 3.4116473e-05 0
-9.9998842 3.4577543e-05 0
-9.9998823 3.6060828e-05 0
-9.9998818 3.7021842e-05 0
-9.9998818 3.7016978e-05 0
-9.9998812 3.7012787e-05 0
-9.9998812 3.7494759e-05 0
-9.9998806 3.8006122e-05 0
-9.9998894 3.7774653e-05 0
-9.9998897 3.7289875e-05 0
-9.9998796 3.8922886e-05 0
-9.9998795 3.8965638e-05 0
-9.9998711 3.8953257e-05 0
-9.9998705 3.9942233e-05 0
-9.9998618 4.0418672e-05 0
-9.9998615 4.1772971e-05 0
-9.9998619 9.0889561e-05 0
-9.9998708 -0.010407324 0
-10.00919 0.0098676071 0
-10.010358 9.8709945e-07 0
-10.010356 4.0318066e-05 0
-10.010355 4.1690411e-05 0
-10.010354 4.2673136e-05 0
-10.010354 4.3156479e-05 0
-10.010353 4.3170001e-05 0
-10.010354 4.3155737e-05 0
-10.01037 4.267514e-05 0
-10.01037 4.2676582e-05 0
-10.010368 4.2662781e-05 0
-10.010361 4.3668519e-05 0
-10.01036 4.4139013e-05 0
-10.010359 4.5138693e-05 0
-10.010359 4.5128196e-05 0
-10.010359 4.5622523e-05 0
-10.010358 4.6107611e-05 0
-10.010358 4.6610397e-05 0
-10.010358 4.6607401e-05 0
-10.010358 4.6591878e-05 0
-10.010356 4.8104031e-05 0
-10.010356 4.8071242e-05 0
-10.010347 4.9419215e-05 0
-10.01035 8.9820566e-05 0
-10.009771 -0.0098206432 0
9.3664074 -3.8409621 0
-1.1590459 -15.884296 0
-3.5091788 -6.6787385 0
6.9878899 -11.314248 0
0.321198 -3.2140018 0
1.2586708 -6.9071126 0
3.0750838 -5.3626779 0
-5.0838501 -1.8509802 0
-5.1820029 5.5180545 0
-4.0597321 0.72410226 0
5.6174295 -17.185689 0
4.8464323 -11.678936 0
-21.764812 -3.0466438 0
1.3000053 -3.6741963 0
1.9302502 -7.8910565 0
-0.95119796 -1.939384 0
-5.5216766 11.097767 0
-12.568859 -11.909146 0
1.569882 11.020821 0
-1.6876632 12.070531 0
-4.0395846 2.3032348 0
0.38345395 10.094806 0
8.2135151 4.7086941 0
-2.6282276 22.954802 0
-9.4775 5.5647675 0
7.3629975 -2.0860704 0
10.416932 -0.19149094 0
5.2314926 0.0662159 0
2.8265842 7.8321747 0
-9.2973286 -6.194983 0
0.77521345 -7.7956343 0
5.0132326 2.615026 0
2.2333631 10.406631 0
0.015367121 -2.3709279 0
6.6545517 -7.3353506 0
-12.710666 -3.3878531 0
-0.23405651 -8.5736585 0
6.658506 -6.6749988 0
-8.8624438 4.9480098 0
5.1144668 16.131173 0
-6.514017 -2.0587908 0
1.2501894 0.089457798 0
-4.2513906 -5.5197727 0
-6.9383006 2.5615393 0
-6.7497691 0.92651164 0
-1.1531045 17.290773 0
-5.6737944 6.9240662 0
6.0131538 0.36331474 0
1.9336072 -5.3352984 0
-0.12093209 9.3397092 0
8.2357725 -6.0207286 0
0.56128267 -0.39994988 0
-5.4901187 -1.4502786 0
-6.8708326 -6.0505353 0
10.252806 13.303919 0
7.4721202 -4.1591126 0
-2.2367732 -12.98777 0
5.1934598 -10.422503 0
-7.6894019 7.3741663 0
2.4070027 -4.8949199 0
1.571362 -2.7006715 0
-2.2241052 -10.812291 0
-8.6472084 10.840922 0
5.06004 1.5748436 0
-0.23929788 4.1752529 0
-6.9705523 -2.0955686 0
4.8809034 0.75247109 0
8.8185002 2.4716 0
3.0033533 -4.6182967 0
7.2241149 1.5804526 0
5.049036 5.5496904 0
-3.1345332 3.5833938 0
6.2139435 7.1732461 0
9.8295192 0.23141571 0
3.0485023 -9.313819 0
-6.5485139 -6.7367901 0
-1.9776826 -10.564134 0
-11.251408 -3.8597178 0
-2.2756622 -0.92280224 0
-3.1365367 2.3987448 0
13.801851 -2.8100648 0
-2.8092886 3.2004298 0
8.0404467 2.360855 0
-2.1399343 5.5448003 0
-7.8570852 1.2943712 0
-2.7339132 1.5656675 0
0.74435888 0.44261208 0
9.2830659 5.6776322 0
-16.287865 13.598899 0
4.1176745 1.8283551 0
6.1805431 -7.732869 0
-13.727607 -7.5635107 0
-7.2464178 -3.3861862 0
-17.445639 0.47521129 0
3.3098397 -12.821072 0
6.4496932 2.0279352 0
10.569276 1.2062016 0
-0.27529474 5.9826698 0
7.1257425 2.7522118 0
7.0375674 8.2929066 0
8.3178736 -8.7026183 0
3.7497182 -0.4414307 0
-1.5988138 -5.4378941 0