# vtk DataFile Version 4.0
hesp visualization file
ASCII
DATASET UNSTRUCTURED_GRID
POINTS 1250 double
28.134352 -0.36292579 4
29.65776 -0.089045975 4
32.245906 4.9690547 4
28.950042 7.4760104 4
31.566792 3.6121687 4
32.787601 6.3014132 4
33.286547 2.8804442 4
32.304977 10.103974 4
31.022783 9.4842422 4
28.359876 9.4105281 4
33.208398 11.544489 4
28.742946 14.423743 4
31.336152 13.926262 4
32.797352 13.930871 4
29.191069 18.038805 4
33.28726 15.727469 4
27.883329 21.207487 4
31.011215 22.387322 4
29.485468 22.007725 4
30.350423 24.591623 4
30.209592 22.909999 4
30.637056 25.699186 4
29.826885 24.22269 4
30.629461 30.577871 4
29.636293 30.657968 4
36.434459 -4.6779303 4
28.950708 2.7775789 4
28.881116 -1.5122233 4
28.95536 4.8321559 4
29.927177 4.0395927 4
30.275853 4.0375577 4
27.9186 3.806643 4
28.11201 6.9962848 4
29.799211 7.800332 4
29.099108 9.7867833 4
29.551529 13.465124 4
29.380685 10.865124 4
28.372569 14.256009 4
26.235149 14.319842 4
31.881894 14.313919 4
29.183942 21.722469 4
29.345405 16.992237 4
27.538288 19.672367 4
31.69004 21.134413 4
32.809632 21.275834 4
30.884955 26.888435 4
32.089747 22.210355 4
27.640066 28.622707 4
29.391997 32.276419 4
32.513571 29.28682 4
26.173239 1.4542734 4
29.924528 -3.3853846 4
31.172373 2.5367539 4
33.067232 5.2550577 4
30.926679 0.82040195 4
32.879051 4.5881904 4
31.659151 3.0058282 4
31.098486 8.4296081 4
30.450444 9.412095 4
32.834156 11.269242 4
32.289992 11.317192 4
30.383275 10.856403 4
30.910841 11.010568 4
33.162773 11.027305 4
32.253531 12.597304 4
31.377918 14.67084 4
30.142797 16.981843 4
33.296414 17.809335 4
30.33472 16.726217 4
30.153009 23.465729 4
29.227863 19.899441 4
32.392321 21.704641 4
29.825159 22.816907 4
31.834574 27.851197 4
31.654642 26.645762 4
35.384885 -7.5759874 4
31.555168 -0.70186117 4
31.480856 5.5071812 4
31.841957 1.8806577 4
27.878735 6.1521256 4
30.517393 7.6885252 4
29.178399 9.5342065 4
29.974929 9.9651613 4
28.435911 11.07471 4
34.240027 10.922306 4
29.448725 15.237677 4
32.794329 11.896901 4
30.606939 15.867934 4
30.54635 19.873426 4
30.903914 15.379872 4
31.463421 15.211093 4
29.979475 18.213998 4
32.865233 15.279342 4
31.557547 18.745577 4
33.690226 19.483818 4
32.695525 19.460264 4
31.921581 21.723991 4
29.817894 23.362794 4
29.392091 26.421705 4
32.292882 36.070882 4
33.278963 -3.1941539 4
31.108914 -1.9797958 4
35.903459 3.3606044 4
33.828178 6.0972916 4
29.712007 2.0098648 4
33.516046 7.5792882 4
32.556319 5.3513789 4
32.44212 6.484875 4
32.482192 7.6032544 4
32.45993 9.0136589 4
32.682769 9.1003877 4
33.45416 10.155038 4
34.694914 11.795711 4
33.305787 12.417602 4
33.000153 13.760122 4
33.746046 16.159523 4
33.239237 16.700768 4
33.606128 19.852165 4
30.418984 18.330297 4
35.0843 20.239804 4
33.142797 22.66669 4
31.942728 20.335244 4
34.602725 22.440824 4
34.674916 26.571249 4
30.947678 27.509827 4
28.96213 -2.3984043 4
29.032132 1.5255997 4
34.345182 6.4692043 4
35.487625 8.4605195 4
34.865061 6.2338184 4
33.582593 8.8282238 4
34.55274 9.2602526 4
35.383819 9.3912795 4
34.764951 11.427934 4
34.46197 13.71229 4
34.716561 14.911179 4
35.628844 15.143905 4
34.540588 17.115847 4
35.441882 17.148452 4
32.18452 18.86616 4
33.740979 21.740622 4
34.410287 20.589025 4
34.55263 22.142904 4
34.471854 23.063718 4
35.314381 24.366292 4
32.804543 27.087384 4
31.663171 23.208548 4
33.241956 27.810329 4
34.158686 30.6237 4
28.060616 28.786658 4
33.281956 3.6490178 4
30.363789 -4.2524873 4
37.458467 4.955757 4
32.157091 2.7522251 4
30.645018 5.916334 4
28.815538 6.659704 4
31.939316 7.4782867 4
31.923921 10.409326 4
30.056882 11.663176 4
30.094779 10.550864 4
32.88873 12.758879 4
30.509433 13.319259 4
30.994382 14.415852 4
33.979195 14.997794 4
30.586302 14.805802 4
29.894142 17.356691 4
30.935215 17.426283 4
31.634564 20.266471 4
32.768915 23.412867 4
30.908019 21.810961 4
32.305287 22.834236 4
33.241073 24.797433 4
32.815071 25.033059 4
34.350244 23.495119 4
30.640727 30.016706 4
39.295483 -2.5041943 4
31.909123 3.3985961 4
32.047292 2.0930288 4
36.020876 6.0666323 4
33.892629 7.939946 4
31.176075 3.8656037 4
31.491298 8.102909 4
30.34706 9.07078 4
33.711502 9.3944063 4
36.729656 9.7899282 4
31.973065 13.369482 4
32.643152 13.553251 4
32.225083 15.839095 4
31.63889 15.692628 4
35.614367 15.519389 4
33.227161 18.717597 4
33.834129 19.757216 4
33.025242 21.716252 4
32.25122 21.959672 4
30.981833 23.256735 4
31.32278 23.602472 4
31.217833 26.581339 4
34.948166 26.634495 4
31.890115 27.150177 4
38.241218 32.539604 4
33.145421 1.1549937 4
34.534166 2.6249867 4
34.276707 1.2897687 4
32.251754 2.4661311 4
34.465727 3.9008997 4
33.571798 3.1535004 4
34.18272 7.856324 4
34.284404 10.018524 4
33.896456 11.602997 4
34.917913 12.632911 4
34.180596 14.011377 4
33.582985 14.642515 4
33.645329 15.948254 4
33.80424 17.145738 4
34.273545 16.505144 4
34.174852 19.401069 4
31.587201 16.314175 4
32.467592 16.720631 4
32.076815 18.177136 4
35.104853 18.94972 4
35.400947 24.08003 4
34.534433 25.865854 4
36.87129 24.505152 4
35.500267 27.115064 4
34.732618 27.222217 4
32.579816 -0.031194759 4
30.901384 1.8472734 4
34.76755 3.0404116 4
35.84181 6.9128894 4
33.699947 6.8829109 4
35.239458 7.2970287 4
35.754011 7.8563106 4
35.078355 8.7535026 4
36.07605 11.028686 4
36.109486 12.39593 4
35.42723 13.275671 4
34.679251 14.310998 4
35.551291 16.411727 4
35.993941 16.638288 4
34.818849 17.888614 4
36.999855 19.902916 4
36.957001 20.799908 4
36.955606 21.946327 4
35.726664 22.271996 4
37.52058 24.643235 4
34.921391 25.331499 4
35.328194 26.626616 4
35.206544 27.801411 4
33.921867 28.645571 4
31.609445 28.07858 4
32.640792 -0.30084638 4
32.705249 2.2559099 4
32.831871 2.9890849 4
34.581541 3.4098493 4
37.074974 4.8602016 4
36.109047 4.7404651 4
36.665861 6.6856324 4
36.074338 8.3224526 4
35.960174 9.286658 4
35.999131 10.475164 4
36.000355 11.599768 4
36.232225 12.918081 4
36.978808 12.734349 4
36.979095 13.877106 4
35.949531 15.919447 4
34.815421 16.127647 4
35.290222 18.687602 4
34.162364 18.087705 4
34.738152 20.162324 4
34.658335 20.543655 4
36.678413 24.868434 4
34.12703 23.73828 4
33.522093 24.741129 4
35.609542 27.404965 4
32.746008 29.92935 4
37.554601 -3.2191981 4
33.873416 2.2444124 4
33.882075 3.4070861 4
37.751037 6.2529107 4
33.890748 7.4928158 4
36.998819 7.2793687 4
34.521377 8.7081544 4
34.535918 9.6434037 4
34.780593 10.717771 4
34.599063 10.959645 4
34.753921 13.475316 4
35.070181 13.884176 4
34.442322 15.031591 4
35.635448 14.200794 4
36.223063 17.863673 4
36.432776 18.9306 4
35.354989 19.522463 4
35.605021 20.710249 4
34.837452 22.631161 4
34.000289 21.374663 4
34.356501 24.050803 4
35.661164 25.022882 4
33.706699 26.167167 4
36.940398 28.259679 4
37.982349 31.099534 4
34.991414 1.1264015 4
37.038962 2.9149773 4
35.556207 3.3603038 4
34.994177 4.5036863 4
38.696374 6.10585 4
38.296944 7.533922 4
38.296989 8.6563097 4
38.296986 9.778776 4
38.296989 10.901234 4
38.296988 12.023698 4
38.29699 13.146158 4
38.297005 14.268599 4
38.296714 15.391459 4
38.298539 16.511451 4
38.299709 17.632422 4
40.365896 18.303901 4
37.295567 21.120648 4
37.262774 22.244313 4
37.082882 23.357274 4
37.472295 23.930615 4
37.104184 25.638629 4
37.11358 26.739565 4
38.389862 26.053655 4
37.080543 29.021478 4
34.994935 28.385919 4
36.114458 1.1265497 4
36.097749 2.2851752 4
36.245593 3.3864411 4
36.817096 3.6232502 4
36.121851 5.5884149 4
37.448458 6.8544281 4
36.833662 7.7316961 4
37.000893 8.7193255 4
37.115645 9.8310709 4
36.943308 10.923352 4
36.629621 11.968964 4
36.095052 13.502957 4
36.108004 14.652806 4
36.368613 15.605047 4
36.241229 16.972342 4
38.16223 17.305152 4
37.884889 18.629039 4
38.400045 18.569865 4
38.398943 19.691553 4
38.398952 20.814023 4
38.399445 21.936599 4
38.399422 23.059071 4
38.399414 24.18163 4
39.700152 26.309519 4
36.151416 28.032323 4
37.23693 1.1265457 4
37.236785 2.2450764 4
37.23666 3.3672574 4
37.723275 3.910515 4
37.236133 5.6142232 4
37.590122 7.5063504 4
37.243014 7.8338351 4
37.242242 8.9563519 4
37.242802 10.079219 4
37.242698 11.201462 4
37.243123 12.324217 4
37.24314 13.446642 4
37.243195 14.569035 4
37.243251 15.691536 4
37.243258 16.814198 4
37.276986 18.032249 4
37.344533 19.43412 4
37.24455 20.225367 4
37.250782 21.416408 4
37.255619 22.534365 4
37.330833 23.481529 4
37.617688 25.045043 4
37.250061 25.026212 4
37.243983 26.951438 4
37.541649 28.148087 4
38.359393 1.1265437 4
38.359393 2.2449366 4
38.359388 3.3673897 4
38.359364 4.4898437 4
38.359406 5.6126915 4
39.240983 7.629317 4
39.625784 8.5336125 4
39.625676 9.6562266 4
39.625679 10.778686 4
39.625676 11.901151 4
39.625677 13.023612 4
39.625676 14.146075 4
39.625661 15.268554 4
39.625935 16.390701 4
39.624241 17.515471 4
39.426095 18.462315 4
38.52073 19.188947 4
38.527376 20.314295 4
38.527366 21.436757 4
38.526534 22.558988 4
38.52654 23.681451 4
38.526423 24.803802 4
38.341856 25.707766 4
38.359317 26.938865 4
38.359382 28.057468 4
39.481856 1.1265437 4
39.481856 2.2449362 4
39.481856 3.367386 4
39.481856 4.4898484 4
39.481848 5.612316 4
39.481752 6.7348302 4
39.48088 7.8577439 4
39.48114 8.9802178 4
39.48114 10.10268 4
39.48114 11.225142 4
39.48114 12.347604 4
39.48114 13.470066 4
39.48114 14.592528 4
39.481139 15.714992 4
39.481148 16.837445 4
39.490007 17.861203 4
39.481811 19.081728 4
39.481847 20.204316 4
39.481848 21.326779 4
39.481848 22.449241 4
39.481848 23.571703 4
39.48185 24.694176 4
39.909922 25.370301 4
39.481848 26.939029 4
39.481856 28.057469 4
40.604318 1.1265437 4
40.604318 2.2449362 4
40.604318 3.3673861 4
40.604318 4.4898483 4
40.604318 5.6123104 4
40.604318 6.7347726 4
40.604316 7.8572348 4
40.604316 8.9796965 4
40.604316 10.102159 4
40.604316 11.224621 4
40.604316 12.347083 4
40.604316 13.469545 4
40.604316 14.592007 4
40.604316 15.714469 4
40.604315 16.836931 4
40.604197 17.959479 4
40.604314 19.08185 4
40.604319 20.204317 4
40.604319 21.326779 4
40.604319 22.449241 4
40.604319 23.571703 4
40.604318 24.694166 4
40.604308 25.816626 4
40.604318 26.939077 4
40.604319 28.05747 4
41.726787 1.1265437 4
41.726781 2.2449367 4
41.726781 3.3673864 4
[...]
POINT_DATA 1250
SCALARS m double
LOOKUP_TABLE default
1
1
1
1
1
1
1
1
1
1
1
1
1
1
1
1
1
1
1
1
1
1
1
1
1
1
1
1
1
1
1
1
1
1
1
1
1
1
1
1
1
1
1
1
1
1
1
1
1
1
1
1
1
1
1
1
1
1
1
1
1
1
1
1
1
1
1
1
1
1
1
1
1
1
1
1
1
1
1
1
1
1
1
1
1
1
1
1
1
1
1
1
1
1
1
1
1
1
1
1
1
1
1
1
1
1
1
1
1
1
1
1
1
1
1
1
1
1
1
1
1
1
1
1
1
1
1
1
1
1
1
1
1
1
1
1
1
1
1
1
1
1
1
1
1
1
1
1
1
1
1
1
1
1
1
1
1
1
1
1
1
1
1
1
1
1
1
1
1
1
1
1
1
1
1
1
1
1
1
1
1
1
1
1
1
1
1
1
1
1
1
1
1
1
1
1
1
1
1
1
1
1
1
1
1
1
1
1
1
1
1
1
1
1
1
1
1
1
1
1
1
1
1
1
1
1
1
1
1
1
1
1
1
1
1
1
1
1
1
1
1
1
1
1
1
1
1
1
1
1
1
1
1
1
1
1
1
1
1
1
1
1
1
1
1
1
1
1
1
1
1
1
1
1
1
1
1
1
1
1
1
1
1
1
1
1
1
1
1
1
1
1
1
1
1
1
1
1
1
1
1
1
1
1
1
1
1
1
1
1
1
1
1
1
1
1
1
1
1
1
1
1
1
1
1
1
1
1
1
1
1
1
1
1
1
1
1
1
1
1
1
1
1
1
1
1
1
1
1
1
1
1
1
1
1
1
1
1
1
1
1
1
1
1
1
1
1
1
1
1
1
1
1
1
1
1
1
1
1
1
1
1
1
1
1
1
1
1
1
1
1
1
1
1
1
1
1
1
1
1
1
1
1
1
1
1
1
1
1
1
1
1
1
1
1
1
1
1
1
1
1
1
1
1
1
1
1
1
1
1
1
1
1
1
1
1
1
1
1
1
1
1
1
1
1
1
1
1
1
1
1
1
1
1
1
1
1
1
1
1
1
1
1
1
1
1
1
1
1
1
1
1
1
1
1
1
1
1
1
1
1
1
1
1
1
1
1
1
1
1
1
1
1
1
1
1
1
1
1
1
1
1
1
1
1
1
1
1
1
1
1
1
1
1
1
1
1
1
1
1
1
1
1
1
1
1
1
1
1
1
1
1
1
1
1
1
1
1
1
1
1
1
1
1
1
1
1
1
1
1
1
1
1
1
1
1
1
1
1
1
1
1
1
1
1
1
1
1
1
1
1
1
1
1
1
1
1
1
1
1
1
1
1
1
1
1
1
1
1
1
1
1
1
1
1
1
1
1
1
1
1
1
1
1
1
1
1
1
1
1
1
1
1
1
1
1
1
1
1
1
1
1
1
1
1
1
1
1
1
1
1
1
1
1
1
1
1
1
1
1
1
1
1
1
1
1
1
1
1
1
1
1
1
1
1
1
1
1
1
1
1
1
1
1
1
1
1
1
1
1
1
1
1
1
1
1
1
1
1
1
1
1
1
1
1
1
1
1
1
1
1
1
1
1
1
1
1
1
1
1
1
1
1
1
1
1
1
1
1
1
1
1
1
1
1
1
1
1
1
1
1
1
1
1
1
1
1
1
1
1
1
1
1
1
1
1
1
1
1
1
1
1
1
1
1
1
1
1
1
1
1
1
1
1
1
1
1
1
1
1
1
1
1
1
1
1
1
1
1
1
1
1
1
1
1
1
1
1
1
1
1
1
1
1
1
1
1
1
1
1
1
1
1
1
1
1
1
1
1
1
1
1
1
1
1
1
1
1
1
1
1
1
1
1
1
1
1
1
1
1
1
1
1
1
1
1
1
1
1
1
1
1
1
1
1
1
1
1
1
1
1
1
1
1
1
1
1
1
1
1
1
1
1
1
1
1
1
1
1
1
1
1
1
1
1
1
1
1
1
1
1
1
1
1
1
1
1
1
1
1
1
1
1
1
1
1
1
1
1
1
1
1
1
1
1
1
1
1
1
1
1
1
1
1
1
1
1
1
1
1
1
1
1
1
1
1
1
1
1
1
1
1
1
1
1
1
1
1
1
1
1
1
1
1
1
1
1
1
1
1
1
1
1
1
1
1
1
1
1
1
1
1
1
1
1
1
1
1
1
1
1
1
1
1
1
1
1
1
1
1
1
1
1
1
1
1
1
1
1
1
1
1
1
1
1
1
1
1
1
1
1
1
1
1
1
1
1
1
1
1
1
1
1
1
1
1
1
1
1
1
1
1
1
1
1
1
1
1
1
1
1
1
1
1
1
1
1
1
1
1
1
1
1
1
1
1
1
1
1
1
1
1
1
1
1
1
1
1
1
1
1
1
1
1
1
1
1
1
1
1
1
1
1
1
1
1
1
1
1
1
1
1
1
1
1
1
1
1
1
1
1
1
1
1
1
1
1
1
1
1
1
1
1
1
1
1
1
1
1
1
1
1
1
1
1
1
1
1
1
1
1
1
1
1
1
1
1
1
1
1
1
1
1
1
1
1
1
1
1
1
1
1
1
1
1
1
1
1
1
1
1
1
1
1
1
1
1
1
1
1
1
1
1
1
1
1
1
1
1
1
1
1
1
1
1
1
1
1
1
1
1
1
1
1
1
1
1
1
1
1
1
1
1
1
1
1
1
1
1
1
1
1
1
1
1
1
1
1
1
1
1
1
1
1
1
1
1
1
1
1
1
1
1
1
1
1
1
1
1
1
1
1
1
1
1
1
1
1
1
1
1
1
1
1
1
1
1
1
1
1
1
1
1
1
1
1
1
1
1
1
VECTORS v double
-3.5489635 -9.3914665 0
-4.4410806 -4.731648 0
1.1318244 -5.3479227 0
-5.2030692 8.0324386 0
-8.1229068 2.4388453 0
4.3069071 2.8729267 0
6.8179622 -10.628784 0
1.5499664 7.9351205 0
5.0128399 -5.8287098 0
-11.575606 -4.4619893 0
7.710517 0.82788471 0
-2.2608535 -16.737316 0
5.5227347 -3.3784357 0
2.4929606 -1.7497771 0
-4.3170746 -7.0803763 0
-0.84884942 -6.4933194 0
-3.3120497 12.942176 0
6.4980218 4.8531177 0
-4.8050811 -3.314127 0
6.643992 2.0213001 0
-6.4993856 5.4457181 0
14.067947 -5.7645541 0
-2.1527561 0.67390144 0
0.21179385 22.968324 0
1.6877372 10.708327 0
8.8420123 -9.0870636 0
1.2894705 -9.7517606 0
-4.8925262 -9.0989509 0
-14.894174 -1.8748453 0
-3.2436075 4.0682175 0
-3.3497031 -1.5342794 0
-0.34494224 -7.2599496 0
-8.608775 -1.8350775 0
1.1830439 -0.60527816 0
-7.3753732 2.3417294 0
-4.0969794 2.1489358 0
-3.4524815 -5.7339625 0
25.695352 -3.580722 0
-7.6428882 -10.740917 0
16.482444 -1.3501853 0
-6.4020537 5.309184 0
-10.617517 5.6755254 0
-5.1819403 0.90909086 0
10.403152 7.0846634 0
-3.1604859 2.2094142 0
0.64010016 8.9045765 0
-0.067776546 -5.9017049 0
-3.2244138 13.692763 0
1.4688306 13.663684 0
1.1723433 0.91511979 0
-4.194938 -4.4790415 0
-2.75545 -9.3163759 0
3.7877847 -2.8674177 0
-2.6868087 4.8434519 0
15.242919 -7.0259959 0
-4.8363758 3.9559604 0
-3.3705732 -11.849918 0
1.4473453 7.0649621 0
-3.2733837 -1.9586146 0
8.6422486 8.7136132 0
0.56495034 0.55621602 0
-2.8536353 -0.049231417 0
5.6053662 3.5986719 0
-0.39476377 0.2435011 0
11.386755 -14.187012 0
2.3050828 -5.9106039 0
1.1946942 -4.7996345 0
16.484645 -1.9465288 0
-7.1796326 5.7584852 0
-9.1320612 9.7695882 0
-11.116867 -6.8051085 0
5.1049939 0.76403106 0
-3.6553482 -9.4361707 0
6.6443112 5.7873252 0
-1.8195498 -0.894484 0
3.9466542 -13.879275 0
2.5314874 -1.7751437 0
6.360815 0.17882599 0
4.8094863 -13.24691 0
-3.4873569 4.7619031 0
1.2761471 8.7578667 0
-3.9126148 11.458941 0
7.9293366 10.283434 0
-1.0994499 1.4010758 0
-4.8078195 14.25491 0
12.946701 8.3286231 0
0.93265239 -12.452452 0
-3.006561 -5.2827119 0
-2.6717213 -4.7530264 0
5.9138065 -0.60356382 0
2.7187321 1.5392674 0
-12.32988 -3.3417226 0
5.6036075 -13.264287 0
10.682699 10.430422 0
-11.300018 1.2887177 0
10.702063 -5.5535061 0
4.373087 -6.1988578 0
-11.236858 -3.7030638 0
-2.2142239 -3.0893179 0
0.47115582 14.494986 0
3.3724456 -12.746365 0
-4.6149186 -16.319009 0
-10.568599 3.1474776 0
2.4308696 7.4553723 0
-10.271921 -12.448271 0
-1.2916368 10.773507 0
-4.8298372 -6.8104155 0
-7.6421204 -7.7353326 0
-7.0669873 -8.0120413 0
-0.3250493 2.0602487 0
-0.23968952 -16.166148 0
0.65449494 -12.691105 0
5.0339962 -8.3457309 0
-3.9594719 -11.014884 0
-1.3275293 -12.550599 0
-1.4345792 4.9850362 0
-1.5483429 0.72184538 0
-10.430292 -0.25588433 0
-2.760933 -3.7069964 0
4.9423524 -4.7241932 0
8.928738 5.1836853 0
-0.40687659 -14.789893 0
8.9792487 -5.4091946 0
5.3298236 -1.2355194 0
5.0452374 1.749484 0
3.4750132 -15.586194 0
-8.0881502 -9.4932967 0
-1.9388702 1.830345 0
7.2704324 -6.3018401 0
-5.9049844 -11.881716 0
-14.817222 5.6818721 0
-6.3005483 6.9343082 0
11.549997 -16.488125 0
3.8187039 1.9777656 0
-10.738351 5.8634794 0
-4.0384603 7.298706 0
2.2925325 -2.6632592 0
-10.171873 3.2263372 0
4.3933068 -6.3938852 0
-15.150492 -4.6189206 0
0.10577822 9.064935 0
-7.5988143 -4.8932742 0
-5.8120795 8.4310895 0
3.2201302 -7.9935976 0
-0.40441783 7.8545368 0
-9.2195395 7.9354828 0
-3.7438823 -13.85361 0
-7.5935325 -0.043019366 0
2.783573 9.3004763 0
-10.114403 1.3584794 0
-3.9897783 -2.4856024 0
-7.1219527 -15.018461 0
-3.1410052 5.7775407 0
3.0573333 -0.28644028 0
3.1381831 -13.778548 0
-12.838973 1.0061711 0
-1.0941276 1.8174965 0
0.96114236 -0.61992709 0
7.5807356 2.1367829 0
-8.7787949 -0.22415584 0
-1.3529509 2.8538068 0
-5.7503898 -4.0488661 0
-1.9861783 -3.6421783 0
6.6674911 -2.632919 0
-1.7661549 -1.7539415 0
-11.99383 4.2168975 0
-8.3705473 -7.6735359 0
2.0285376 -6.1195851 0
3.6390586 4.0305923 0
-7.4080634 -2.1347478 0
-11.345469 10.062154 0
5.2011699 4.3580813 0
12.138253 1.610992 0
3.8101172 2.7659262 0
-9.0856466 7.1168617 0
7.915255 -6.525834 0
9.8669501 -11.57301 0
2.9050065 -7.3383514 0
0.063542046 -6.5310725 0
0.45023211 17.363968 0
-5.4583776 -16.412827 0
8.4720052 -2.7085071 0
-9.9332296 -0.40334667 0
11.932559 -5.7271928 0
1.8579397 -2.6648083 0
11.894776 7.2281065 0
6.802732 -3.5206784 0
6.8336917 6.6426229 0
14.766168 -8.4305798 0
6.8191773 -6.1221586 0
-2.3879744 3.3414769 0
8.7981357 -13.800822 0
-0.26668332 15.021425 0
-4.6476051 -9.7202712 0
-4.854012 3.4414523 0
-10.065496 -1.1301566 0
-9.1037446 3.0884568 0
-8.3666426 1.2852737 0
-5.8923846 0.42935021 0
6.2747659 8.8218117 0
7.9538349 3.0457738 0
-10.899095 -0.035142058 0
-2.8555186 -0.45011902 0
-18.248581 -10.684085 0
-4.775184 2.7642714 0
1.3337742 -10.515 0
-2.4725054 5.7526157 0
-3.323295 -2.1212103 0
-12.659312 8.7154405 0
3.4452354 -2.4577775 0
-2.5738682 13.585526 0
-16.950627 1.3281468 0
-8.4450951 3.7700767 0
-3.9669466 12.654901 0
9.0882863 9.3858862 0
12.754349 3.7649482 0
-16.167981 -2.3984696 0
-8.2845092 -7.8465335 0
-13.611619 -4.5226221 0
-5.2365894 0.71238655 0
-0.0082819867 -1.2695543 0
2.1070135 5.6553367 0
-10.462012 -1.9294222 0
0.4355909 7.8859937 0
-8.2823416 0.29360275 0
-3.4002063 -7.3896712 0
-11.724032 1.4432439 0
-10.063912 -7.106325 0
-6.1979466 8.5254463 0
-16.787248 0.85511453 0
-2.4906951 1.5509528 0
2.7824786 -7.5383087 0
-10.890211 -0.5803952 0
4.0473652 2.4895644 0
3.3424856 4.8468222 0
1.0438227 -1.0696701 0
-10.45454 -2.0195887 0
-1.5007946 8.4102423 0
-4.7823903 -7.5308884 0
-8.7967509 3.0008596 0
3.2831711 3.0129901 0
-1.7919933 0.3946578 0
-1.5774063 0.47281448 0
-3.5298909 -3.6550769 0
8.719253 2.9238491 0
-8.6916223 1.7722371 0
2.9035651 0.095921044 0
-6.0517419 -0.10884112 0
-10.00527 5.3097693 0
-11.207056 3.2334998 0
-10.087493 -8.4294965 0
-10.363449 0.19614679 0
-2.194621 2.1152301 0
8.0374814 -8.9654362 0
7.1314273 0.47322921 0
-7.7863746 -3.8173678 0
1.7527758 0.13611232 0
-7.5483899 5.0115274 0
-9.1122339 3.0502391 0
-8.5851043 3.8620158 0
-8.5679382 3.8714292 0
-5.1385552 6.3852042 0
4.3120621 -6.5772581 0
4.286743 -6.5749912 0
-8.3113172 3.3802128 0
-7.9197376 -3.0669138 0
5.1844702 -12.939906 0
-12.691735 -7.3381133 0
-2.7301919 -9.9079374 0
1.5166945 0.62499738 0
7.9965708 13.498996 0
-10.260472 -0.59431969 0
-7.0815958 -3.6945845 0
-3.3668489 6.7419723 0
-10.025885 9.187749 0
0.82932806 -12.767677 0
-9.9786714 0.016602773 0
-9.9478622 0.270778 0
-1.1035932 -4.0466081 0
-6.4945431 1.1493637 0
6.8935254 -5.4338431 0
-8.6663145 -4.8636141 0
-11.021019 -1.6731838 0
0.31746968 -3.9893126 0
-14.954383 2.2484256 0
-2.9342741 18.125684 0
-1.5366361 -2.1976766 0
1.7605774 8.0585225 0
2.7756725 -13.407982 0
-4.3208413 -1.1186271 0
-3.3646484 10.656816 0
5.5262379 3.8144037 0
7.5452302 2.4961717 0
-5.9046242 5.6196636 0
-10.619505 -6.998985 0
-11.044999 0.98315145 0
-2.913644 -6.6019003 0
-13.497118 7.5176907 0
-12.562927 8.7717471 0
3.3784938 9.887686 0
-10.003364 0.0079559823 0
-0.37425961 2.9582639 0
2.5158065 -0.12132841 0
-9.9763835 0.091116045 0
-3.7849976 -6.1355064 0
-8.4833626 -2.8362372 0
-8.4831207 -2.8351851 0
-8.4831599 -2.8350962 0
-8.4831035 -2.8351423 0
-8.4831024 -2.8351164 0
-8.4831018 -2.835143 0
-8.4829068 -2.8353821 0
-8.4862395 -2.8309945 0
-8.4655268 -2.8572422 0
-8.5095736 -2.9550308 0
13.988615 2.0631322 0
0.87086978 -0.45389185 0
-0.54995747 -1.064292 0
-13.25766 3.0915051 0
0.17360174 3.3669469 0
-4.8706631 9.5855263 0
-8.3175015 2.7389005 0
2.1946087 -0.10532356 0
-4.5662772 9.5603998 0
-9.9077376 5.8415421 0
-10.000009 0.0085175901 0
-10.116786 0.38714368 0
6.746749 2.4692678 0
-1.5633926 -10.455828 0
-9.9353431 -0.16682289 0
6.502023 1.2015547 0
0.71854279 3.1872463 0
2.9640621 -4.080661 0
16.816901 -2.5440343 0
2.2749559 -4.7561956 0
-1.6855954 -6.4416399 0
-10.108883 0.088317209 0
-9.934251 0.48204368 0
3.7578972 -7.5274868 0
-0.40428362 6.8807019 0
8.1378625 -6.7247354 0
-2.7464596 -1.9131875 0
-2.9495434 -10.601761 0
-2.9890213 -10.634853 0
-2.9885794 -10.634654 0
-2.9709503 -10.631396 0
-2.9716619 -10.631153 0
-2.9706223 -10.630193 0
1.1116865 10.597499 0
-9.6722602 -0.19324522 0
-10.000012 0.0085663647 0
-10.004488 0.0064201419 0
-10.024556 -0.010416883 0
-0.67205291 -11.153672 0
-10.004373 0.011805806 0
-4.8463064 11.52188 0
-9.9667075 -0.22371458 0
-10.033909 -0.23133279 0
-9.8010537 0.10689214 0
-9.9966211 -0.21335467 0
-9.9534197 -0.16921617 0
-9.9505069 -0.17250034 0
-9.9433711 -0.18265472 0
-9.9411107 -0.17975905 0
-9.939831 -0.17568624 0
-9.3414685 1.4586976 0
-8.876788 3.5123807 0
-9.9358984 0.19739938 0
-9.1915934 11.628166 0
-8.1494927 12.274652 0
0.64083755 1.8478027 0
4.1906763 11.88464 0
-10.095236 -8.0435765 0
-5.9098368 6.6512498 0
0.14949848 2.943719 0
-10 0.0085392127 0
-10.000033 1.0181227e-05 0
-10.000472 0.00036871015 0
-10.001485 -0.0004780289 0
-9.9954321 0.015907818 0
1.3216667 11.510563 0
5.9323912 8.5149434 0
5.9311583 8.5172101 0
5.9311888 8.5171733 0
5.9311563 8.5172133 0
5.9311702 8.5171962 0
5.931154 8.5172159 0
5.9309802 8.5174375 0
5.9342834 8.5132171 0
5.9082601 8.5892673 0
3.0005971 5.9052267 0
-5.419795 3.0829143 0
-5.2594225 3.1435318 0
-5.2596821 3.1435406 0
-5.2790281 3.1395847 0
-5.2789975 3.1396125 0
-5.2793555 3.129281 0
-10.302003 -1.4178262 0
-10.001009 -0.0036636584 0
-10.000735 -0.0085025417 0
-9.9999976 0.0085371768 0
-9.9999977 -8.0697008e-06 0
-10.000002 1.1988559e-06 0
-10.000009 7.359684e-06 0
-10.000424 0.00028421612 0
-10.002902 0.0021822191 0
-10.063041 -0.0070211293 0
-10.018529 0.0024663649 0
-10.018523 0.0024238029 0
-10.018522 0.0024238406 0
-10.018522 0.0024231626 0
-10.018522 0.0024231127 0
-10.018519 0.0024167503 0
-10.01857 0.0025231067 0
-10.018289 0.0021611494 0
-9.793272 -2.6454802 0
-10.001835 -0.0071122873 0
-10.000471 -1.0997322e-05 0
-10.000465 1.1196829e-05 0
-10.000464 1.1122836e-05 0
-10.000466 1.49462e-05 0
-10.000052 0.00090885621 0
3.1534308 -13.798273 0
-9.9996388 -0.0036019544 0
-10.000001 -0.0085470214 0
-9.9999973 0.0085371765 0
-9.9999973 -8.1884001e-06 0
-9.9999967 -6.7177042e-08 0
-9.9999967 4.8726842e-07 0
-10.000003 3.6726315e-06 0
-10.000021 1.0910686e-05 0
-10.000111 3.5174337e-05 0
-10.000179 -3.4205516e-06 0
-10.000179 -4.4507353e-06 0
-10.000179 -4.4521633e-06 0
-10.000179 -4.4514608e-06 0
-10.000179 -4.4520937e-06 0
-10.000179 -4.4515053e-06 0
-10.000179 -3.438435e-06 0
-10.000195 2.4972407e-05 0
-10.021447 0.020942491 0
-10.000357 -0.0006056216 0
-10.000004 -4.657121e-06 0
-10.000001 1.0242545e-06 0
-10.000001 1.0233769e-06 0
-10.000002 3.3498539e-06 0
-10.000118 0.00011733018 0
-10.000956 -0.00026032366 0
-10.000074 -4.9512709e-05 0
-9.9999967 -0.0085382615 0
-9.9999729 0.0085371704 0
-9.9999945 -6.7021366e-06 0
-9.9999944 9.0743914e-07 0
-9.9999944 1.4628137e-06 0
-9.9999944 1.4629322e-06 0
-9.9999943 1.4612586e-06 0
-9.9999954 1.6960142e-06 0
-9.9999963 1.5093833e-06 0
-9.9999963 1.5095091e-06 0
-9.9999963 1.5095324e-06 0
-9.9999963 1.5092522e-06 0
-9.9999958 1.9962004e-06 0
-9.9999958 1.9973187e-06 0
-9.9999957 2.0032107e-06 0
-9.9999981 3.5447092e-06 0
-10.000009 4.6374005e-06 0
-10 -9.031428e-07 0
-9.9999934 2.1819015e-06 0
-9.9999931 2.4349683e-06 0
-9.9999931 2.4323682e-06 0
-9.9999926 2.9243606e-06 0
-9.9999948 3.8841881e-06 0
-9.9999968 3.2178989e-06 0
-9.9999944 1.06294e-05 0
-9.9999919 -0.008533754 0
-9.9999406 0.0085371512 0
-9.9999918 -4.7332397e-06 0
-9.9999918 2.8529927e-06 0
-9.9999918 3.4083662e-06 0
-9.9999919 3.4196e-06 0
-9.9999924 2.4239715e-06 0
-9.9999918 2.9227902e-06 0
-9.9999912 3.4103814e-06 0
-9.9999911 3.4099007e-06 0
-9.9999911 3.4099439e-06 0
-9.9999911 3.4099376e-06 0
-9.9999911 3.3945216e-06 0
-9.9999906 3.9103357e-06 0
-9.9999905 3.9011528e-06 0
-9.9999905 3.9010308e-06 0
-9.9999905 3.9012341e-06 0
-9.9999905 3.9029421e-06 0
-9.9999903 3.9022037e-06 0
-9.9999904 3.9016413e-06 0
-9.9999898 4.3874628e-06 0
-9.9999892 4.8785044e-06 0
-9.9999891 4.8757211e-06 0
-9.999989 5.4305793e-06 0
-9.9999889 1.3068458e-05 0
-9.9999889 -0.0085322709 0
-9.9999169 0.0085371428 0
-9.9999886 -3.2181774e-06 0
-9.9999887 4.3220233e-06 0
-9.9999887 4.8776329e-06 0
-9.9999886 4.8779899e-06 0
-9.9999885 4.8764099e-06 0
-9.9999879 4.876674e-06 0
-9.9999879 5.3640289e-06 0
-9.9999877 5.3642477e-06 0
-9.9999877 5.3643049e-06 0
-9.9999877 5.3641634e-06 0
-9.9999877 5.296748e-06 0
-9.9999772 1.3214286e-05 0
-9.9999772 1.3146054e-05 0
-9.9999773 1.3145401e-05 0
-9.9999762 1.3632365e-05 0
-9.9999762 1.4121545e-05 0
-9.9999761 1.4120221e-05 0
-9.9999761 1.411706e-05 0
-9.9999761 1.4124003e-05 0
-9.9999761 1.4124651e-05 0
-9.9999761 1.4124076e-05 0
-9.9999759 1.46716e-05 0
-9.9999754 2.2809849e-05 0
-9.9999752 -0.0085224987 0
-9.9997562 0.0085370591 0
-9.999975 6.6717251e-06 0
-9.9999745 1.4052922e-05 0
-9.9999745 1.5096225e-05 0
-9.9999734 1.6074685e-05 0
-9.9999734 1.60718e-05 0
-9.9999734 1.6071868e-05 0
-9.9999735 1.60679e-05 0
-9.9999729 1.6562358e-05 0
-9.9999724 1.6557838e-05 0
-9.9999724 1.7045207e-05 0
-9.9999723 1.7047066e-05 0
-9.9999724 1.7056615e-05 0
-9.9999719 1.7050792e-05 0
-9.9999719 1.7535215e-05 0
-9.9999713 1.8030121e-05 0
-9.9999713 1.802609e-05 0
-9.9999712 1.8026145e-05 0
-9.9999711 1.7979164e-05 0
-9.9999662 2.2936344e-05 0
-9.9999661 2.2888681e-05 0
-9.9999656 2.2885034e-05 0
-9.9999656 2.3933513e-05 0
-9.9999655 3.1564976e-05 0
-9.9999648 -0.0085132145 0
-9.9996064 0.0085369994 0
-9.9999639 1.6005813e-05 0
-9.9999637 2.3301141e-05 0
-9.9999638 2.4351101e-05 0
-9.9999632 2.4824913e-05 0
-9.9999621 2.5817021e-05 0
-9.999962 2.5807677e-05 0
-9.999962 2.5808288e-05 0
-9.999962 2.5808846e-05 0
-9.999962 2.5810999e-05 0
-9.9999614 2.5807773e-05 0
-9.9999614 2.6301807e-05 0
-9.9999609 2.6297656e-05 0
-9.9999609 2.67806e-05 0
-9.9999598 2.775472e-05 0
-9.9999593 2.8253657e-05 0
-9.9999592 2.824429e-05 0
-9.9999575 2.8731143e-05 0
-9.9999575 2.9707106e-05 0
-9.9999576 2.9710492e-05 0
-9.9999575 2.970731e-05 0
-9.9999576 2.9707434e-05 0
-9.9999575 3.0266903e-05 0
-9.9999575 3.7903446e-05 0
-9.9999574 -0.0085073464 0
-9.9995101 0.0085387678 0
-9.9999579 1.5221315e-05 0
-9.9999564 2.3810965e-05 0
-9.9999558 2.4853293e-05 0
-9.9999553 2.4844686e-05 0
-9.9999543 2.5811507e-05 0
-9.9999537 2.6800406e-05 0
-9.9999447 2.7288698e-05 0
-9.9999439 2.7758046e-05 0
-9.9999427 2.8749242e-05 0
-9.9999422 2.9712791e-05 0
-9.9999422 2.9710965e-05 0
-9.9999417 2.9708691e-05 0
-9.9999416 3.0190395e-05 0
-9.999941 3.0694202e-05 0
-9.9999405 3.0679922e-05 0
-9.99994 3.1174515e-05 0
-9.99994 3.1660342e-05 0
-9.9999399 3.1658614e-05 0
-9.9999316 3.165272e-05 0
-9.999931 3.2633607e-05 0
-9.9999224 3.3115007e-05 0
-9.9999226 3.3667116e-05 0
-9.9999228 4.110928e-05 0
-9.9999277 -0.0085057189 0
-10.007519 0.0080649622 0
-10.008469 3.061138e-05 0
-10.008467 3.2710974e-05 0
-10.008467 3.3756514e-05 0
-10.008465 3.4735747e-05 0
-10.008465 3.5223632e-05 0
-10.008465 3.5231757e-05 0
-10.008466 3.4730383e-05 0
-10.008482 3.474165e-05 0
-10.008482 3.4741135e-05 0
-10.008481 3.4239953e-05 0
-10.008473 3.5233058e-05 0
-10.008472 3.5711396e-05 0
-10.008472 3.6209423e-05 0
-10.008471 3.6204419e-05 0
-10.008471 3.6696067e-05 0
-10.00847 3.7185046e-05 0
-10.00847 3.768148e-05 0
-10.00847 3.767988e-05 0
-10.00847 3.7671455e-05 0
-10.008469 3.8670897e-05 0
-10.008469 3.8651569e-05 0
-10.00846 3.9679644e-05 0
-10.008462 4.2586664e-05 0
-10.007989 -0.0080266552 0
9.3664195 -3.8409599 0
-10.158158 -2.5433832 0
7.3150863 13.887337 0
6.9884791 -11.536537 0
-3.1919628 -4.6070653 0
3.2398471 1.3880378 0
0.067902445 -6.888278 0
-5.4725762 0.71410099 0
0.33516865 4.5542914 0
-1.6098801 -6.1024252 0
7.6305697 -13.105766 0
6.6876448 -0.58898177 0
-10.398542 -5.0637093 0
-10.636557 12.746674 0
-0.78357671 -5.5197318 0
-2.6450383 -5.1708252 0
-7.2585297 -0.12575697 0
-16.602753 -17.651592 0
-2.7675461 9.7211161 0
11.124136 11.204767 0
22.190555 -4.9122587 0
1.877801 4.0114699 0
8.1084812 4.371634 0
-2.6284794 22.954763 0
-9.4776038 5.5650107 0
-6.2281314 -4.3850244 0
-0.86298512 -0.70019546 0
-0.2440699 -0.33703908 0
-6.9896878 -9.291533 0
9.4447394 -7.8839662 0
0.56635466 -7.8105053 0
-5.1798643 -9.399454 0
5.3673549 0.999003 0
-0.78230816 5.476992 0
-16.118687 -6.0662862 0
-6.3748215 4.7764067 0
-0.56415865 -8.5050435 0
0.3391095 2.1684275 0
-9.6495596 -5.2408128 0
-8.7843344 -0.83922325 0
3.1557298 4.0825363 0
-5.6968498 -1.420247 0
0.34639914 -9.81478 0
-6.9901883 2.5491033 0
-1.3987894 11.922901 0
1.7906335 -9.277909 0
1.5014485 -1.0418673 0
6.9445327 -0.24911522 0
-1.0902141 -6.0301783 0
-0.12110792 9.339941 0
8.2362216 -6.0208774 0
1.8416028 1.6160417 0
-6.3579448 -1.298255 0
-1.0382499 2.7905086 0
4.946797 9.5811015 0
16.652142 5.5011481 0
-13.019833 0.72365419 0
-2.4455606 -0.061298161 0
-7.5173385 7.5183298 0
13.727037 6.7650009 0
-0.56146992 9.0610668 0
6.2393548 -0.99602714 0
-3.9723277 -0.85460821 0
-2.3927452 2.9501757 0
17.975887 -0.57255539 0
7.9066311 -4.3520803 0
-9.5653665 5.9942957 0
14.039476 -0.63135118 0
-3.8358528 -1.0817355 0
-6.6024971 9.0274682 0
-4.4134465 1.7949332 0
4.8374209 10.155545 0
5.720424 3.7767764 0
4.5187334 -1.0537564 0
-6.269766 11.942764 0
-6.5485076 -6.7367908 0
-1.9778342 -10.564264 0
-11.191887 -4.762203 0
0.2694696 -15.154417 0
-3.1528975 2.3933834 0
6.1758662 4.9440153 0
-6.4715481 4.9384472 0
10.607079 1.0229165 0
12.091442 -0.7162609 0
12.334292 -9.8139023 0
-1.2121202 -14.785928 0
-15.083897 0.45234576 0
-7.6815893 -4.0828251 0
-1.0815167 7.1544666 0
2.7206056 -3.5129257 0
6.1719431 2.8274154 0