# vtk DataFile Version 4.0
hesp visualization file
ASCII
DATASET UNSTRUCTURED_GRID
POINTS 1250 double
28.063232 -0.55047404 4
29.568939 -0.18367837 4
32.183504 4.7688848 4
28.846046 7.6369283 4
31.403547 3.6610134 4
32.87288 6.3591665 4
33.423592 2.6689226 4
32.359447 10.254135 4
31.122935 9.3676493 4
28.128401 9.3212217 4
33.361759 11.560533 4
28.920404 14.085774 4
31.446613 13.858583 4
32.826363 13.914389 4
29.104227 17.897792 4
33.271272 15.598498 4
27.816753 21.466188 4
31.141162 22.484328 4
29.388162 21.940631 4
30.424077 24.57167 4
30.078315 23.018655 4
30.934104 25.574389 4
29.931562 24.228501 4
30.63369 31.03716 4
29.670046 30.872131 4
36.611299 -4.8596716 4
28.976292 2.5812208 4
28.783193 -1.6942382 4
28.657452 4.7946422 4
29.863456 4.1207302 4
30.207696 4.0069412 4
27.863494 3.713052 4
27.940413 6.9606972 4
29.822548 7.7871321 4
28.900764 9.9566383 4
29.469601 13.508111 4
29.311606 10.750248 4
28.513981 14.551717 4
26.082379 14.105124 4
32.211473 14.286913 4
29.056616 21.829763 4
29.132926 17.105884 4
27.435004 19.690868 4
31.927917 21.253609 4
32.746332 21.320414 4
30.898077 27.065958 4
32.082978 22.102453 4
27.575481 28.896529 4
29.421373 32.549692 4
32.537027 29.305157 4
26.089257 1.3647802 4
29.869421 -3.5717146 4
31.248239 2.4794819 4
33.013007 5.3518997 4
31.259347 0.72962401 4
32.782191 4.6674951 4
31.592021 2.768966 4
31.127579 8.5707052 4
30.384526 9.3716919 4
33.008661 11.443277 4
32.301463 11.328335 4
30.325728 10.854905 4
31.022828 11.082511 4
33.154052 11.033417 4
32.481359 12.313602 4
31.423597 14.552434 4
30.068496 17.019776 4
33.626187 17.770371 4
30.289079 16.707694 4
29.969527 23.660538 4
29.005617 19.763404 4
32.514542 21.69706 4
29.78236 22.617939 4
31.966938 27.967178 4
31.617796 26.62802 4
35.463819 -7.8535729 4
31.605844 -0.73736036 4
31.608075 5.5107649 4
31.933839 1.6105047 4
27.808853 6.2473029 4
30.542447 7.8631048 4
29.151025 9.6405413 4
30.133482 10.171177 4
28.41424 11.103061 4
34.115063 11.218589 4
29.702863 15.40179 4
32.813149 11.647506 4
30.546864 15.762151 4
30.4934 19.77834 4
31.022273 15.36782 4
31.517818 15.242168 4
29.733117 18.147333 4
32.977393 15.014101 4
31.748257 18.968767 4
33.461735 19.507964 4
32.908858 19.349182 4
31.998013 21.587648 4
29.594916 23.289195 4
29.347557 26.359606 4
32.302305 36.360782 4
33.346412 -3.4490811 4
31.016529 -2.3064325 4
35.816011 3.4403921 4
33.87691 6.2464967 4
29.506423 1.7609886 4
33.491833 7.7942579 4
32.556695 5.3728198 4
32.290134 6.3298718 4
32.340453 7.4429866 4
32.2888 9.0111828 4
32.841807 8.8195442 4
33.467273 9.9012014 4
34.782401 11.685675 4
33.226472 12.197349 4
33.017041 13.494382 4
33.76794 16.358738 4
33.208308 16.715183 4
33.373633 19.855789 4
30.363453 18.256105 4
35.181863 20.145137 4
33.321361 22.770364 4
31.952273 20.039479 4
34.805117 22.373294 4
34.604718 26.484863 4
31.048329 27.544791 4
29.031627 -2.7101203 4
28.876367 1.3340779 4
34.306385 6.5056697 4
35.633427 8.3344751 4
34.746848 5.9962549 4
33.286271 8.9419749 4
34.431067 9.3860538 4
35.615234 9.0614003 4
34.854362 11.410337 4
34.248056 13.829983 4
34.680952 15.03249 4
35.674737 15.091341 4
34.337093 17.180241 4
35.529798 17.020434 4
31.904185 18.759491 4
33.743252 21.921561 4
34.219518 20.496966 4
34.404524 22.257745 4
34.53474 22.905252 4
35.305855 24.524985 4
32.620152 27.246107 4
31.588269 22.931556 4
33.090077 27.809456 4
34.214357 30.809709 4
27.858123 28.81348 4
33.202311 3.5991508 4
30.221348 -4.5528531 4
37.39934 5.0744518 4
32.217338 2.7488726 4
30.70778 5.6407538 4
28.642381 6.5492285 4
31.91776 7.5147007 4
32.123039 10.31098 4
30.209402 11.706514 4
29.91978 10.546586 4
32.861687 12.815834 4
30.394403 13.237815 4
30.955075 14.343338 4
34.113348 14.945299 4
30.551115 14.77066 4
29.654407 17.440727 4
30.767783 17.272802 4
31.657312 20.144339 4
32.841687 23.493455 4
30.759893 21.768327 4
32.078282 23.035477 4
33.242988 24.927997 4
33.052914 25.068771 4
34.425729 23.550791 4
30.459016 30.159122 4
39.453788 -2.634711 4
32.10596 3.1669217 4
32.110184 1.952051 4
36.022179 5.9351052 4
33.895908 8.2890307 4
31.068034 3.5370954 4
31.659803 8.0483465 4
30.205139 9.1474526 4
33.950192 9.2797938 4
36.767666 9.7368325 4
32.210937 13.51406 4
32.756526 13.479013 4
32.36164 15.971913 4
31.934069 15.523736 4
35.750953 15.396422 4
33.179394 18.784444 4
34.037415 19.473594 4
33.019734 22.016481 4
32.15461 21.789727 4
30.885159 23.326555 4
31.12076 23.579138 4
31.035742 26.643854 4
34.95876 26.721891 4
31.772181 27.158602 4
38.366713 32.71604 4
33.304217 1.2157255 4
34.31667 2.6250534 4
34.219643 1.2807566 4
31.887508 2.2492912 4
34.370271 3.9560357 4
33.598267 2.943282 4
34.138568 7.9688409 4
34.218422 9.975113 4
33.642983 11.777183 4
34.986825 12.583764 4
34.130306 14.282354 4
33.244031 14.669169 4
33.424817 15.923238 4
33.724882 17.398927 4
34.455329 16.69293 4
34.428992 19.476867 4
31.263858 16.266154 4
32.301912 16.563677 4
31.804382 18.086834 4
35.000494 18.963534 4
35.401265 24.053122 4
34.576624 25.978984 4
36.66197 24.467274 4
35.504261 27.256339 4
34.567049 27.227962 4
32.507064 -0.14508762 4
30.666826 1.8762365 4
34.565517 2.8988493 4
35.717807 7.0834376 4
33.364234 6.9000673 4
35.189716 7.328037 4
35.809673 7.7056775 4
34.86045 8.7418371 4
36.156935 11.078429 4
36.176402 12.493078 4
35.448157 13.254349 4
34.469639 14.27025 4
35.522169 16.580153 4
35.89767 16.48783 4
34.642872 17.948631 4
37.064849 19.956905 4
36.921627 20.808106 4
36.925057 21.956122 4
35.65606 22.198896 4
37.69477 24.702623 4
34.747533 25.367003 4
35.385153 26.628805 4
35.085668 27.7991 4
33.721762 28.751764 4
31.38581 28.142963 4
32.443256 -0.50402864 4
32.497543 2.2599372 4
32.788213 3.0312843 4
34.742472 3.229359 4
37.213893 4.8665929 4
35.953322 4.6641262 4
36.700953 6.688405 4
35.922831 8.4226218 4
35.777485 9.3477303 4
35.827477 10.552569 4
35.829052 11.677104 4
36.129367 13.045705 4
37.06533 12.602998 4
37.065149 13.745009 4
35.783221 15.986863 4
34.65698 16.06637 4
35.393556 18.429292 4
33.908448 17.940863 4
34.684471 19.96539 4
34.72784 20.549261 4
36.839197 25.137735 4
33.923444 23.727044 4
33.487497 24.620339 4
35.546646 27.556218 4
32.545481 30.11307 4
37.571188 -3.4745517 4
33.673833 2.2448045 4
33.682256 3.4115343 4
37.728952 6.172004 4
33.759661 7.5169876 4
37.136778 7.1709482 4
34.348257 8.6109976 4
34.310576 9.6236592 4
34.787085 10.637606 4
34.32876 10.994097 4
34.694621 13.83906 4
35.038656 13.839754 4
34.431485 15.217103 4
35.690948 13.932592 4
36.136646 17.841288 4
36.365486 19.143739 4
35.465463 19.598736 4
35.7559 20.760151 4
34.72982 22.755665 4
33.787717 21.235046 4
34.134801 24.069067 4
35.602831 24.890763 4
33.436763 26.31752 4
36.68918 28.435115 4
38.049919 31.297288 4
34.791298 1.1265733 4
37.031646 2.9749168 4
35.483474 3.3410848 4
34.794635 4.5054892 4
38.620593 5.9830357 4
38.127229 7.4772015 4
38.127325 8.5996055 4
38.127317 9.7220745 4
38.127326 10.844531 4
38.127325 11.966996 4
38.127326 13.089455 4
38.127346 14.211891 4
38.126988 15.334839 4
38.129227 16.454328 4
38.129432 17.572067 4
40.645954 18.343793 4
37.312623 21.110291 4
37.251012 22.219885 4
36.81138 23.415994 4
37.475601 23.997459 4
37.006784 25.830279 4
36.9154 26.742623 4
38.433306 26.050276 4
36.989214 29.212666 4
34.796802 28.50269 4
35.914458 1.1267214 4
35.895415 2.2929217 4
36.379966 3.435834 4
36.783848 3.4142932 4
35.923118 5.5859841 4
37.578399 6.8785454 4
36.820962 7.7897664 4
37.056738 8.6301674 4
37.441747 9.7290121 4
36.989641 10.829439 4
36.595899 11.840179 4
35.892818 13.504571 4
35.909212 14.662505 4
36.443656 15.454563 4
36.232847 17.109565 4
38.325073 17.1719 4
37.830238 18.590717 4
38.340784 18.357925 4
38.338297 19.481667 4
38.338145 20.604266 4
38.338993 21.726931 4
38.338965 22.849425 4
38.338977 23.971983 4
39.722351 26.521541 4
35.95796 28.02844 4
37.03693 1.1267189 4
37.036687 2.245245 4
37.037691 3.3660397 4
37.709837 3.6874036 4
37.036073 5.6143967 4
37.492547 7.7370709 4
37.071427 7.8343266 4
37.044997 8.9592721 4
37.056164 10.132332 4
37.041918 11.195975 4
37.043714 12.320625 4
37.043807 13.443789 4
37.044321 14.565359 4
37.04441 15.687937 4
37.044459 16.810685 4
37.090163 18.061428 4
37.166871 19.504626 4
37.046595 20.235427 4
37.066681 21.650278 4
37.092596 22.782251 4
37.350178 23.52211 4
37.70069 25.281937 4
37.048412 24.86522 4
37.157619 27.13618 4
37.544615 28.206968 4
38.159393 1.1267163 4
38.159392 2.244937 4
38.159349 3.3674197 4
38.159326 4.4898296 4
38.159572 5.6131202 4
39.11877 7.722452 4
39.744123 8.7043886 4
39.743992 9.8270538 4
39.743995 10.949512 4
39.743992 12.071978 4
39.743993 13.194439 4
39.743991 14.316903 4
39.743973 15.439386 4
39.744314 16.561446 4
39.741469 17.688346 4
39.486096 18.580495 4
38.413197 19.247784 4
38.423228 20.374229 4
38.42321 21.496668 4
38.421981 22.618801 4
38.421978 23.741287 4
38.420818 24.866354 4
38.136251 25.680669 4
38.159296 26.938786 4
38.159342 28.0573 4
39.281856 1.1267162 4
39.281856 2.2449361 4
39.281856 3.3673861 4
39.281856 4.4898486 4
39.281831 5.6123267 4
39.281692 6.7348758 4
39.428274 7.9947049 4
39.281083 8.9797864 4
39.281084 10.102247 4
39.281084 11.224709 4
39.281084 12.347171 4
39.281084 13.469633 4
39.281085 14.592095 4
39.281082 15.714561 4
39.281094 16.837011 4
39.295079 17.807254 4
39.281782 19.081437 4
39.281831 20.204316 4
39.281832 21.32678 4
39.281832 22.449242 4
39.281832 23.571704 4
39.281856 24.694207 4
39.973001 25.094321 4
39.281896 26.938885 4
39.281856 28.057296 4
40.404318 1.1267162 4
40.404318 2.244936 4
40.404318 3.3673861 4
40.404318 4.4898483 4
40.404318 5.6123105 4
40.404317 6.7347729 4
40.404312 7.8572365 4
40.404305 8.9796948 4
40.404305 10.102157 4
40.404305 11.224619 4
40.404305 12.347081 4
40.404305 13.469543 4
40.404305 14.592005 4
40.404305 15.714467 4
40.404305 16.83693 4
40.403472 17.961286 4
40.404305 19.08182 4
40.404318 20.204317 4
40.404319 21.326779 4
40.404319 22.449241 4
40.404319 23.571704 4
40.404303 24.69418 4
40.404277 25.816613 4
40.404313 26.939073 4
40.404319 28.057297 4
41.526788 1.1267162 4
41.526781 2.2449365 4
41.526781 3.3673864 4
[...]
POINT_DATA 1250
SCALARS m double
LOOKUP_TABLE default
1
1
1
1
1
1
1
1
1
1
1
1
1
1
1
1
1
1
1
1
1
1
1
1
1
1
1
1
1
1
1
1
1
1
1
1
1
1
1
1
1
1
1
1
1
1
1
1
1
1
1
1
1
1
1
1
1
1
1
1
1
1
1
1
1
1
1
1
1
1
1
1
1
1
1
1
1
1
1
1
1
1
1
1
1
1
1
1
1
1
1
1
1
1
1
1
1
1
1
1
1
1
1
1
1
1
1
1
1
1
1
1
1
1
1
1
1
1
1
1
1
1
1
1
1
1
1
1
1
1
1
1
1
1
1
1
1
1
1
1
1
1
1
1
1
1
1
1
1
1
1
1
1
1
1
1
1
1
1
1
1
1
1
1
1
1
1
1
1
1
1
1
1
1
1
1
1
1
1
1
1
1
1
1
1
1
1
1
1
1
1
1
1
1
1
1
1
1
1
1
1
1
1
1
1
1
1
1
1
1
1
1
1
1
1
1
1
1
1
1
1
1
1
1
1
1
1
1
1
1
1
1
1
1
1
1
1
1
1
1
1
1
1
1
1
1
1
1
1
1
1
1
1
1
1
1
1
1
1
1
1
1
1
1
1
1
1
1
1
1
1
1
1
1
1
1
1
1
1
1
1
1
1
1
1
1
1
1
1
1
1
1
1
1
1
1
1
1
1
1
1
1
1
1
1
1
1
1
1
1
1
1
1
1
1
1
1
1
1
1
1
1
1
1
1
1
1
1
1
1
1
1
1
1
1
1
1
1
1
1
1
1
1
1
1
1
1
1
1
1
1
1
1
1
1
1
1
1
1
1
1
1
1
1
1
1
1
1
1
1
1
1
1
1
1
1
1
1
1
1
1
1
1
1
1
1
1
1
1
1
1
1
1
1
1
1
1
1
1
1
1
1
1
1
1
1
1
1
1
1
1
1
1
1
1
1
1
1
1
1
1
1
1
1
1
1
1
1
1
1
1
1
1
1
1
1
1
1
1
1
1
1
1
1
1
1
1
1
1
1
1
1
1
1
1
1
1
1
1
1
1
1
1
1
1
1
1
1
1
1
1
1
1
1
1
1
1
1
1
1
1
1
1
1
1
1
1
1
1
1
1
1
1
1
1
1
1
1
1
1
1
1
1
1
1
1
1
1
1
1
1
1
1
1
1
1
1
1
1
1
1
1
1
1
1
1
1
1
1
1
1
1
1
1
1
1
1
1
1
1
1
1
1
1
1
1
1
1
1
1
1
1
1
1
1
1
1
1
1
1
1
1
1
1
1
1
1
1
1
1
1
1
1
1
1
1
1
1
1
1
1
1
1
1
1
1
1
1
1
1
1
1
1
1
1
1
1
1
1
1
1
1
1
1
1
1
1
1
1
1
1
1
1
1
1
1
1
1
1
1
1
1
1
1
1
1
1
1
1
1
1
1
1
1
1
1
1
1
1
1
1
1
1
1
1
1
1
1
1
1
1
1
1
1
1
1
1
1
1
1
1
1
1
1
1
1
1
1
1
1
1
1
1
1
1
1
1
1
1
1
1
1
1
1
1
1
1
1
1
1
1
1
1
1
1
1
1
1
1
1
1
1
1
1
1
1
1
1
1
1
1
1
1
1
1
1
1
1
1
1
1
1
1
1
1
1
1
1
1
1
1
1
1
1
1
1
1
1
1
1
1
1
1
1
1
1
1
1
1
1
1
1
1
1
1
1
1
1
1
1
1
1
1
1
1
1
1
1
1
1
1
1
1
1
1
1
1
1
1
1
1
1
1
1
1
1
1
1
1
1
1
1
1
1
1
1
1
1
1
1
1
1
1
1
1
1
1
1
1
1
1
1
1
1
1
1
1
1
1
1
1
1
1
1
1
1
1
1
1
1
1
1
1
1
1
1
1
1
1
1
1
1
1
1
1
1
1
1
1
1
1
1
1
1
1
1
1
1
1
1
1
1
1
1
1
1
1
1
1
1
1
1
1
1
1
1
1
1
1
1
1
1
1
1
1
1
1
1
1
1
1
1
1
1
1
1
1
1
1
1
1
1
1
1
1
1
1
1
1
1
1
1
1
1
1
1
1
1
1
1
1
1
1
1
1
1
1
1
1
1
1
1
1
1
1
1
1
1
1
1
1
1
1
1
1
1
1
1
1
1
1
1
1
1
1
1
1
1
1
1
1
1
1
1
1
1
1
1
1
1
1
1
1
1
1
1
1
1
1
1
1
1
1
1
1
1
1
1
1
1
1
1
1
1
1
1
1
1
1
1
1
1
1
1
1
1
1
1
1
1
1
1
1
1
1
1
1
1
1
1
1
1
1
1
1
1
1
1
1
1
1
1
1
1
1
1
1
1
1
1
1
1
1
1
1
1
1
1
1
1
1
1
1
1
1
1
1
1
1
1
1
1
1
1
1
1
1
1
1
1
1
1
1
1
1
1
1
1
1
1
1
1
1
1
1
1
1
1
1
1
1
1
1
1
1
1
1
1
1
1
1
1
1
1
1
1
1
1
1
1
1
1
1
1
1
1
1
1
1
1
1
1
1
1
1
1
1
1
1
1
1
1
1
1
1
1
1
1
1
1
1
1
1
1
1
1
1
1
1
1
1
1
1
1
1
1
1
1
1
1
1
1
1
1
1
1
1
1
1
1
1
1
1
1
1
1
1
1
1
1
1
1
1
1
1
1
1
1
1
1
1
1
1
1
1
1
1
1
1
1
1
1
1
1
1
1
1
1
1
1
1
1
1
1
1
1
1
1
1
1
1
1
1
1
1
1
1
1
1
1
1
1
1
1
1
1
1
1
1
1
1
1
1
1
1
1
1
1
1
1
VECTORS v double
-3.2494833 -9.1102524 0
-4.4411225 -4.7315876 0
-3.7092907 -10.561727 0
-5.1918674 8.063154 0
-8.2227775 2.4395864 0
4.2427786 2.8916499 0
6.8660502 -10.566466 0
12.576526 4.2958386 0
5.0045768 -5.8304139 0
-11.573318 -4.4676122 0
7.6312128 0.79056807 0
16.064675 -16.010885 0
5.5239682 -3.393449 0
1.3512382 -0.80020001 0
-4.3525468 -7.0369572 0
-0.75600169 -6.3915345 0
-3.3373382 12.931277 0
6.4978655 4.8501747 0
-4.9311936 -3.3870011 0
-1.4288065 -5.9911276 0
-6.6132076 5.4171461 0
14.849159 -6.2809261 0
10.329835 -0.16434021 0
0.21112022 22.96306 0
1.6875675 10.707992 0
8.8420163 -9.0870582 0
1.2371329 -9.8804448 0
-4.8999052 -9.1022827 0
-14.897724 -1.8768325 0
-3.1208404 4.0385107 0
-3.4742073 -1.5210939 0
-4.1806351 -3.2708922 0
-8.5632412 -1.7561631 0
1.1476237 -0.72984872 0
-10.735571 9.545143 0
-4.0959123 2.1504708 0
-3.455052 -5.7504786 0
-0.23744466 18.376839 0
-7.6376089 -10.735119 0
16.477766 -1.3513093 0
-6.0987833 5.3390098 0
-10.651666 5.7068801 0
-5.1536593 0.93300475 0
12.21996 5.7786626 0
-3.1787665 2.2532595 0
0.6631951 8.8466482 0
-0.45338346 -5.1112867 0
-3.5289072 13.747325 0
1.468786 13.663622 0
1.1729704 0.91807162 0
-4.1885816 -4.4748656 0
-2.7553143 -9.316599 0
3.8077619 -2.8526366 0
-2.742452 4.8396677 0
16.927499 -4.0645903 0
-4.6646503 3.776871 0
-3.3558633 -11.852265 0
1.4581894 7.0499785 0
-3.2094931 -1.924619 0
9.0003645 8.4743934 0
0.58045455 0.55918064 0
-2.8957374 -0.091811171 0
5.5957912 3.5968877 0
-0.46405556 0.36818259 0
11.396433 -14.182699 0
2.2656131 -5.9285666 0
-6.7604202 6.0663577 0
16.518736 -1.9613958 0
0.7562359 -5.0907691 0
-9.2013381 9.7189896 0
-11.111215 -6.801054 0
6.5022045 -0.75253795 0
-1.0359305 -10.493134 0
6.595419 5.8096523 0
-1.854167 -0.87748078 0
3.9466542 -13.879275 0
2.5356738 -1.7748898 0
6.361118 0.17941854 0
4.5936769 -13.53954 0
-3.500803 4.7546219 0
1.2440546 8.7149965 0
-0.6909152 3.8430687 0
7.9177677 10.333249 0
-1.0566541 1.4357992 0
-8.4806684 15.971144 0
7.8000598 5.4088278 0
0.76584758 -12.269498 0
-3.0018606 -5.2940864 0
-2.6325001 -4.7520021 0
5.9259507 -0.60311278 0
2.7222166 1.5698329 0
-12.319225 -3.3214098 0
5.6180799 -13.267916 0
2.5925027 16.591101 0
-11.434736 1.2661626 0
10.659185 -5.5549086 0
0.58192045 -10.564041 0
-11.066129 -3.6657947 0
-2.2401693 -3.1133459 0
0.47115582 14.494986 0
3.372446 -12.746358 0
-4.6272105 -16.366138 0
1.7870714 4.9529735 0
2.4466397 7.46754 0
-10.290909 -12.436446 0
-1.1397966 10.708273 0
0.74960484 2.4178049 0
-7.5784576 -7.7538948 0
-7.1207807 -8.0115122 0
-9.3640426 -0.32798776 0
8.7425411 -13.886839 0
0.65732226 -12.692709 0
2.7237782 1.4050794 0
-3.9683558 -11.015226 0
6.493897 -12.449436 0
1.2487857 10.256734 0
-1.5441225 0.71919228 0
-11.624425 0.11216656 0
-2.7839324 -3.7106323 0
4.8419731 -4.7404031 0
8.9278258 5.1834662 0
1.3958287 -14.906322 0
10.783322 -2.5411189 0
-6.2732888 -5.3779664 0
5.0217416 1.7408874 0
3.4747313 -15.58557 0
-7.7979016 -9.5581261 0
-1.9469961 1.8140323 0
7.2556944 -6.3212881 0
-5.9143568 -11.875186 0
-14.823597 5.6888058 0
-4.9341926 3.3954852 0
11.544828 -16.541557 0
6.1152797 -7.7941694 0
-10.646055 5.9234667 0
0.095087562 4.9291035 0
2.2835009 -2.712366 0
-10.176758 3.2073033 0
4.3992774 -6.4201271 0
-7.0481534 -10.731184 0
0.11521637 9.0395031 0
-9.6383347 -4.5877144 0
-8.202668 4.6656299 0
1.3901977 -6.5189337 0
-0.40998281 7.9045013 0
-9.2194649 7.9370814 0
-3.7368472 -13.848381 0
-7.5946463 -0.044453024 0
2.7835633 9.3004684 0
-9.8364699 1.2754776 0
-3.9722398 -2.5008055 0
-7.122087 -15.018144 0
-1.9788079 6.8098665 0
2.9948829 -0.168221 0
3.1376542 -13.779894 0
-2.3070007 -15.491143 0
-1.0495805 1.8225697 0
1.4332072 -2.3494343 0
7.6798482 2.1710488 0
-8.7215323 -0.22752984 0
-1.3539512 2.844277 0
-5.750912 -4.1083091 0
-1.948898 -3.6123956 0
6.7581409 -2.6024982 0
-1.7530056 -1.7609016 0
-11.984981 4.1941171 0
-8.3731575 -7.6749572 0
0.2145093 -5.9838133 0
3.6384007 4.0285191 0
-7.4052111 -2.1304705 0
-11.362033 10.061567 0
2.1701984 4.6521015 0
7.8497296 4.6832679 0
3.7405281 2.8015415 0
-9.0855142 7.1222036 0
7.9152522 -6.5258352 0
9.8389637 -11.608112 0
3.1582827 -7.0171965 0
0.057573954 -6.6429968 0
0.13930695 17.440213 0
-5.337881 -16.42417 0
8.3707748 -2.7565904 0
-0.48798941 14.287472 0
11.947386 -5.7263152 0
1.9241947 -2.6417947 0
11.897449 7.229889 0
0.11030524 -4.5759621 0
6.8228566 6.6401096 0
14.747319 -8.4572113 0
6.852626 -6.0637509 0
-2.389215 3.3445304 0
10.236688 -14.190002 0
-0.28186515 15.00574 0
-1.8705443 -4.7310127 0
-4.8097534 3.5777106 0
-10.174213 -1.207117 0
-9.1118179 3.1665256 0
3.3396632 5.4198513 0
-5.9006467 0.41239924 0
6.274761 8.8217873 0
7.9354596 3.0338651 0
-10.835795 0.055657131 0
-2.8493603 -0.45155128 0
-18.187523 -10.851013 0
-4.7712951 2.7548904 0
1.328509 -10.479605 0
-2.1945123 5.6246952 0
-3.2744553 -2.2382131 0
-12.715094 8.6882784 0
3.4460196 -2.45698 0
-2.4429403 13.518824 0
-16.954035 1.3425704 0
-11.225573 -1.6044142 0
-3.9739452 12.685559 0
9.0888453 9.3990336 0
12.643562 3.8104214 0
-16.166908 -2.4022161 0
-8.2835928 -7.850696 0
-13.655974 -4.496044 0
-5.2073496 0.67828589 0
0.0069076992 -1.3045749 0
2.1123357 5.6622049 0
-10.461182 -1.8763525 0
-0.010977428 6.1170302 0
-8.2746156 0.28212594 0
-3.674085 -5.2715267 0
-11.733545 1.4539992 0
-10.131223 -7.0657205 0
-6.2040947 8.5314473 0
-16.784572 0.85917055 0
-2.4815952 1.5491909 0
2.781906 -7.5281048 0
-10.90567 -0.58498643 0
4.0408892 2.4848956 0
3.347304 4.8676268 0
1.0542905 -1.0601405 0
-10.532367 -2.0667797 0
-1.3900913 8.4344932 0
-4.8770452 -7.5221021 0
-8.8006827 3.0006817 0
3.1357238 1.1806091 0
-1.7476377 0.42069789 0
-1.464924 0.48386377 0
-3.5305883 -3.6548826 0
8.702932 2.9903811 0
-8.6940468 1.7786778 0
2.8001097 0.12221322 0
-6.0326337 -0.12385536 0
-10.005222 5.3095845 0
-11.160219 3.2058602 0
-9.8702657 -10.639718 0
-10.4088 0.20152093 0
-2.1804242 2.1072298 0
8.0343906 -9.086584 0
5.9671839 -0.55167211 0
-7.7862668 -3.8166121 0
1.7568312 0.14125801 0
-7.5430161 5.0240195 0
-9.1093818 3.0985052 0
-8.5799537 3.8764892 0
-8.5625255 3.8638269 0
-5.1487231 6.3812922 0
4.3312538 -6.096898 0
4.313965 -6.5079353 0
-8.3176194 3.3705106 0
-7.9239884 -3.0604653 0
5.1562157 -12.901418 0
-12.717691 -7.356497 0
-2.6575862 -9.8182016 0
3.5845476 0.23733539 0
8.0735896 13.44495 0
-10.107728 -0.52182639 0
0.23851434 -7.0614237 0
-2.9479751 8.513187 0
-10.02649 9.184739 0
0.82932692 -12.767681 0
-9.982661 0.027981341 0
-10.020536 0.18170962 0
-1.1042421 -4.0446666 0
-6.6116135 1.2653729 0
6.9051675 -5.4169428 0
-8.646906 -4.8559779 0
-12.457186 1.965061 0
0.30500638 -3.9901741 0
-11.258954 0.55588592 0
-2.9799256 18.230991 0
-1.6255788 -2.2405067 0
-2.4690416 10.384866 0
2.7765936 -13.419239 0
-4.3207722 -1.1202034 0
-3.364347 10.657097 0
5.521013 3.815258 0
7.5431775 2.4943435 0
-3.4966295 5.0705101 0
-10.630962 -6.973057 0
-11.120864 0.84638774 0
-2.9244191 -6.6163975 0
-13.496663 7.5176257 0
-12.560202 8.7720013 0
3.3784983 9.8877095 0
-10.009813 0.0096619165 0
-0.3624362 3.0598099 0
-9.7767934 -1.924063 0
-9.9780049 0.088821582 0
-3.7934789 -6.1457163 0
-8.4884622 -2.835609 0
-8.483354 -2.8352497 0
-8.4843347 -2.8350429 0
-8.4832658 -2.8351374 0
-8.4832124 -2.8350707 0
-8.4832551 -2.8351189 0
-8.4830274 -2.8353791 0
-8.4862969 -2.8309584 0
-8.46543 -2.8548685 0
-8.5016409 -3.0792473 0
13.992283 1.9315044 0
0.82530162 -0.51066386 0
-0.63505121 -1.2379988 0
-13.559572 2.9362478 0
0.15862242 3.3197826 0
-4.8698109 9.5804423 0
-10.033106 -0.048990738 0
2.1472017 -0.21532734 0
-4.5666179 9.5585704 0
-9.9059737 5.8366467 0
-10.000006 0.0086570975 0
-10.116633 0.38748734 0
6.7358254 2.4709678 0
-3.1983648 -10.111151 0
-9.9288513 -0.055006128 0
6.4891908 1.2112731 0
-8.1254744 1.452454 0
2.6558861 -4.9129184 0
16.247194 -5.5889466 0
2.3445885 -4.6253779 0
-1.6856099 -6.436937 0
-10.120073 0.074135288 0
-9.9474102 0.49452237 0
3.7501258 -7.5229428 0
-0.42498896 6.8548274 0
8.1299205 -6.6017624 0
-2.72108 -1.9196683 0
-2.9742864 -10.592795 0
-3.8412594 -7.9002533 0
-3.985129 -7.8448093 0
-3.963554 -7.8228833 0
-3.9547267 -7.80702 0
-3.9495015 -7.8195772 0
1.1072739 10.60522 0
-9.6742468 -0.19601206 0
-10.000011 0.0087518924 0
-10.005076 0.010296936 0
-8.4513514 -0.46336391 0
-0.66954169 -11.159013 0
-10.001155 0.0051732855 0
-4.9182131 11.546793 0
-1.0480504 1.451515 0
-9.725935 0.60093486 0
-9.2971852 3.128931 0
-10.067743 -0.34534081 0
-9.9786342 -0.65160725 0
-9.9781526 -0.23959792 0
-9.9438357 -0.18474995 0
-9.9439561 -0.18056406 0
-9.9402332 -0.17560474 0
-9.3409214 1.4591064 0
-8.8907059 3.5469074 0
-9.7778826 2.0064036 0
-9.2170238 11.714871 0
-8.1466491 12.37319 0
0.95948234 2.0513181 0
4.1408988 11.825943 0
-10.102769 -8.0477039 0
-4.1939167 9.4388882 0
0.14954566 2.9438203 0
-10.000001 0.00872118 0
-10.000068 3.6998479e-05 0
-10.005742 0.0042866973 0
-10.002324 -0.00086719528 0
-9.9877819 0.027000137 0
-10.55682 0.57284595 0
5.9017344 8.5542278 0
5.9007675 8.5573018 0
5.9008008 8.5572641 0
5.9007666 8.5573064 0
5.9007812 8.5572883 0
5.9007641 8.5573092 0
5.900582 8.557543 0
5.9040435 8.5531101 0
5.8106884 8.6770285 0
2.9976385 5.9167778 0
-4.5677069 0.34733794 0
-4.2623383 0.35363122 0
-4.2666336 0.33494228 0
-4.2955021 0.3153986 0
-4.3009117 0.32902696 0
-5.2813317 3.127088 0
-10.257196 -1.3103246 0
-10.001032 -0.0042592717 0
-10.004334 -0.0079794021 0
-9.9999976 0.0087179623 0
-9.9999991 -1.0206745e-05 0
-10.000011 3.0063337e-06 0
-10.000021 1.4050489e-05 0
-10.001519 0.00092245357 0
-10.0031 0.0023186429 0
1.8162534 10.932921 0
-9.9870617 -0.037293453 0
-9.986973 -0.037347466 0
-9.9869727 -0.037344532 0
-9.9869709 -0.037346996 0
-9.9869717 -0.03734621 0
-9.9869673 -0.037354154 0
-9.9870104 -0.037250755 0
-9.9870247 -0.037161843 0
-9.6949553 -2.7290279 0
-9.9994381 -0.024288179 0
-10.001214 7.7396169e-05 0
-10.001211 0.00010806564 0
-10.001205 0.00010685055 0
-10.001207 0.00011517051 0
-9.9992998 0.0021026235 0
3.1555081 -13.800819 0
-9.9944867 -0.011224706 0
-10.000004 -0.0087370012 0
-9.9999973 0.0087179621 0
-9.9999973 -1.1269743e-05 0
-9.9999967 -9.564821e-08 0
-9.9999972 9.5578814e-07 0
-10.000008 5.1236289e-06 0
-10.000034 1.9643156e-05 0
-10.000341 0.0001536812 0
-10.001312 -0.00033421527 0
-10.001309 -0.00033572438 0
-10.001309 -0.00033532555 0
-10.001309 -0.00033530571 0
-10.001309 -0.00033531282 0
-10.001309 -0.00033532101 0
-10.00131 -0.00033325948 0
-10.001331 -0.00028405674 0
-10.026623 0.15417155 0
-10.000387 -0.0026408189 0
-10.000011 -1.0885769e-05 0
-10.000007 1.0832053e-06 0
-10.000007 1.0801346e-06 0
-10.00001 1.0533168e-05 0
-10.00263 0.0024809136 0
-10.002065 -0.0010488276 0
-10.000597 -0.0003835722 0
-9.9999987 -0.0087234508 0
-9.9999727 0.0087179554 0
-9.9999943 -9.7822817e-06 0
-9.9999942 8.789284e-07 0
-9.9999942 1.4629782e-06 0
-9.9999942 1.4630054e-06 0
-9.9999944 1.6195619e-06 0
-9.9999981 2.4724489e-06 0
-10.000001 1.5923486e-06 0
-10.000002 1.4520182e-06 0
-10.000002 1.4520492e-06 0
-10.000002 1.4517005e-06 0
-10.000001 1.9387636e-06 0
-10.000001 1.9398157e-06 0
-10.000001 1.9466289e-06 0
-10.000007 6.9647639e-06 0
-10.000145 5.3204914e-05 0
-10.00004 -2.9665602e-05 0
-9.999994 1.0456858e-06 0
-9.9999929 2.434981e-06 0
-9.9999929 2.4321396e-06 0
-9.9999929 3.5067877e-06 0
-10.000001 5.9222393e-06 0
-10.000003 1.8370965e-06 0
-9.9999973 1.2549219e-05 0
-9.9999919 -0.0087146885 0
-9.9999403 0.0087179351 0
-9.9999915 -7.81239e-06 0
-9.9999916 2.824347e-06 0
-9.9999916 3.4084146e-06 0
-9.9999917 3.4201129e-06 0
-9.9999922 2.4233519e-06 0
-9.9999915 2.9228001e-06 0
-9.9999909 3.4104953e-06 0
-9.9999908 3.4099146e-06 0
-9.9999908 3.4099608e-06 0
-9.9999908 3.4099575e-06 0
-9.9999908 3.3937984e-06 0
-9.9999903 3.9110049e-06 0
-9.9999902 3.9014367e-06 0
-9.9999902 3.9012935e-06 0
-9.9999915 4.0617418e-06 0
-9.999991 3.6971214e-06 0
-9.99999 3.9025619e-06 0
-9.9999901 3.9018825e-06 0
-9.9999895 4.3876904e-06 0
-9.9999889 4.8790443e-06 0
-9.9999888 4.8759295e-06 0
-9.9999887 5.4594444e-06 0
-9.9999886 1.6150358e-05 0
-9.9999886 -0.0087130557 0
-9.9999166 0.008717926 0
-9.9999883 -6.2943949e-06 0
-9.9999884 4.2937868e-06 0
-9.9999884 4.8781195e-06 0
-9.9999883 4.8784258e-06 0
-9.9999882 4.8767707e-06 0
-9.9999876 4.8769936e-06 0
-9.9999876 5.364484e-06 0
-9.9999874 5.364652e-06 0
-9.9999874 5.3647104e-06 0
-9.9999874 5.3645798e-06 0
-9.9999874 5.2932529e-06 0
-9.999977 1.3217993e-05 0
-9.999977 1.3145812e-05 0
-9.999977 1.3145072e-05 0
-9.999976 1.3632073e-05 0
-9.9999759 1.4121468e-05 0
-9.9999759 1.411998e-05 0
-9.9999759 1.4116645e-05 0
-9.9999759 1.4123989e-05 0
-9.9999758 1.4124674e-05 0
-9.9999758 1.4123973e-05 0
-9.9999757 1.469982e-05 0
-9.9999751 2.5891713e-05 0
-9.9999749 -0.0087032839 0
-9.9997559 0.0087178371 0
-9.9999747 3.6022867e-06 0
-9.9999743 1.402405e-05 0
-9.9999743 1.5096155e-05 0
-9.9999732 1.6074938e-05 0
-9.9999732 1.6071766e-05 0
-9.9999732 1.6071836e-05 0
-9.9999732 1.6067598e-05 0
-9.9999726 1.6562572e-05 0
-9.9999721 1.6557682e-05 0
-9.9999721 1.7045173e-05 0
-9.999972 1.7047091e-05 0
-9.9999721 1.7057191e-05 0
-9.9999716 1.705093e-05 0
-9.9999716 1.753533e-05 0
-9.999971 1.8030702e-05 0
-9.999971 1.8026381e-05 0
-9.9999709 1.8026452e-05 0
-9.9999708 1.7976866e-05 0
-9.9999659 2.2938883e-05 0
-9.9999658 2.2888558e-05 0
-9.9999653 2.2884553e-05 0
-9.9999653 2.396219e-05 0
-9.9999652 3.4646139e-05 0
-9.9999645 -0.0086939998 0
-9.9996061 0.0087177734 0
-9.9999636 1.2939632e-05 0
-9.9999634 2.3271859e-05 0
-9.9999634 2.4351022e-05 0
-9.9999629 2.4824078e-05 0
-9.9999618 2.5817169e-05 0
-9.9999617 2.5807227e-05 0
-9.9999617 2.5807869e-05 0
-9.9999617 2.5808529e-05 0
-9.9999616 2.5810772e-05 0
-9.999961 2.5807333e-05 0
-9.999961 2.6301861e-05 0
-9.9999605 2.6297369e-05 0
-9.9999605 2.678002e-05 0
-9.9999594 2.7754466e-05 0
-9.9999589 2.825378e-05 0
-9.9999588 2.8243858e-05 0
-9.9999571 2.8730804e-05 0
-9.9999571 2.9706894e-05 0
-9.9999572 2.9710383e-05 0
-9.9999571 2.970706e-05 0
-9.9999572 2.9707109e-05 0
-9.9999571 3.0295505e-05 0
-9.9999571 4.0984997e-05 0
-9.999957 -0.0086881317 0
-9.999507 0.0087196563 0
-9.9999546 1.2166218e-05 0
-9.999953 2.378306e-05 0
-9.9999524 2.4854152e-05 0
-9.999952 2.4844913e-05 0
-9.9999504 2.5811537e-05 0
-9.9999498 2.7288211e-05 0
-9.9999409 2.7776501e-05 0
-9.9999401 2.8245122e-05 0
-9.9999389 2.9236819e-05 0
-9.9999383 3.0200095e-05 0
-9.9999383 3.0198047e-05 0
-9.9999378 3.0195611e-05 0
-9.9999377 3.0677289e-05 0
-9.9999372 3.1181766e-05 0
-9.9999366 3.1166761e-05 0
-9.9999361 3.1661743e-05 0
-9.9999361 3.2147657e-05 0
-9.9999361 3.2145744e-05 0
-9.9999277 3.2139342e-05 0
-9.9999271 3.3120861e-05 0
-9.9999185 3.3601908e-05 0
-9.9999187 3.418253e-05 0
-9.9999189 4.466581e-05 0
-9.9999241 -0.0086861267 0
-10.007681 0.0082358031 0
-10.008649 2.8378462e-05 0
-10.008647 3.3175681e-05 0
-10.008647 3.4250365e-05 0
-10.008645 3.5229918e-05 0
-10.008645 3.5717366e-05 0
-10.008645 3.5725994e-05 0
-10.008646 3.5223904e-05 0
-10.008662 3.5235658e-05 0
-10.008662 3.523526e-05 0
-10.00866 3.4733304e-05 0
-10.008653 3.5727441e-05 0
-10.008652 3.6205123e-05 0
-10.008652 3.6703697e-05 0
-10.008651 3.669829e-05 0
-10.008651 3.7190153e-05 0
-10.00865 3.7678763e-05 0
-10.00865 3.8175755e-05 0
-10.00865 3.817404e-05 0
-10.00865 3.8165038e-05 0
-10.008649 3.9165802e-05 0
-10.008649 3.9145401e-05 0
-10.00864 4.0201974e-05 0
-10.008642 4.5823922e-05 0
-10.008159 -0.0081970262 0
9.3664176 -3.8409599 0
-10.148106 -2.5528636 0
7.3215697 13.893568 0
7.0412503 -11.444143 0
-5.3417134 1.6507699 0
3.240143 1.3883744 0
0.13845563 -6.8806358 0
-5.1308362 4.9167614 0
0.29156434 4.4984677 0
-1.6036482 -6.060541 0
7.487969 -13.124999 0
6.6929997 -0.57074429 0
-10.391933 -5.0640662 0
-5.4894643 15.672631 0
-1.7386229 -5.2255719 0
-2.6292219 -5.1593789 0
-7.2407694 -0.14567764 0
-16.582136 -17.658363 0
6.7598605 12.243658 0
-1.361805 12.069252 0
22.158111 -4.9205086 0
1.8994338 3.9986058 0
8.1106967 4.3718078 0
-2.6284419 22.954784 0
-9.4775768 5.5651502 0
-6.2109843 -4.3724684 0
2.9784173 -4.6332545 0
1.3796399 1.6311488 0
-7.0532347 -9.2634235 0
9.4615368 -7.8621755 0
0.55895108 -7.7731091 0
5.7679608 -4.5366525 0
-5.5310421 -3.7770823 0
-0.82014311 5.5057341 0
-15.974174 -5.6376516 0
-6.321416 4.774882 0
-0.52265542 -8.5191345 0
0.45274751 2.0955643 0
-9.6201298 -5.1957965 0
4.9404558 9.654802 0
3.1179445 4.0936633 0
-5.6908988 -1.4253787 0
0.56302186 -10.438966 0
-6.9649348 2.6048506 0
-1.404401 11.955613 0
9.8583067 -1.2617404 0
-5.4129619 6.59156 0
6.1831067 0.22393031 0
-1.0901565 -6.0299669 0
-0.12118114 9.3399564 0
8.2361806 -6.0208407 0
1.8444356 1.6327397 0
-3.5579772 -15.868465 0
-1.1122538 2.7304263 0
4.946821 9.5758494 0
16.625071 5.5796969 0
-13.023045 0.73080803 0
-2.4694831 -0.031627576 0
-7.5241554 7.5136949 0
13.711019 6.7466123 0
0.37182207 8.9820781 0
6.1930973 -1.0341206 0
-3.8667896 -0.81929653 0
-2.3969479 3.007995 0
16.389589 -9.0524182 0
7.9238118 -4.3658189 0
-9.5520734 6.0401854 0
14.064282 -0.61171577 0
-3.701075 -1.0978722 0
-6.5863644 9.0191663 0
-4.9041053 2.3124539 0
4.8695695 10.159906 0
5.7241597 3.7675382 0
4.4981581 -1.0371836 0
-6.2763296 11.931572 0
-6.548508 -6.7367908 0
-1.9777956 -10.564224 0
-11.195388 -4.757138 0
-2.3993811 -0.59787107 0
-3.151643 2.3945889 0
6.1702457 4.9586061 0
-2.538213 -6.3420123 0
10.70841 1.0288696 0
0.5914958 4.6544449 0
9.6930032 -15.545752 0
-11.786456 1.724868 0
-15.089151 0.45146638 0
-7.6821175 -4.0844078 0
-1.0936709 7.134537 0
2.621789 -3.5492589 0
6.1773632 2.827066 0
-5.3571211 3.5022043 0