# vtk DataFile Version 4.0
hesp visualization file
ASCII
DATASET UNSTRUCTURED_GRID
POINTS 1250 double
30.468995 1.1250542 4
30.462593 2.2444522 4
30.459245 3.3672508 4
30.459246 4.4897262 4
30.459246 5.6121889 4
30.459246 6.7346506 4
30.459246 7.8571128 4
30.459246 8.9795747 4
30.459246 10.102037 4
30.459246 11.224499 4
30.459246 12.346961 4
30.459246 13.469421 4
30.459246 14.591883 4
30.459246 15.714344 4
30.459246 16.836807 4
30.459246 17.959298 4
30.459246 19.08176 4
30.459246 20.204223 4
30.459246 21.326685 4
30.459246 22.449139 4
30.459246 23.571602 4
30.459246 24.694064 4
30.459246 25.816525 4
30.459246 26.938976 4
30.45925 28.06078 4
31.161534 1.1207378 4
30.923692 2.2452542 4
30.867331 3.367477 4
30.867331 4.4899253 4
30.867331 5.6123869 4
30.867331 6.7348491 4
30.867331 7.8573111 4
30.867331 8.9797732 4
30.867331 10.102235 4
30.867331 11.224697 4
30.867331 12.347159 4
30.867331 13.469622 4
30.867329 14.592084 4
30.867331 15.714547 4
30.867329 16.837009 4
30.867329 17.959459 4
30.867329 19.081921 4
30.867328 20.204383 4
30.867328 21.326845 4
30.867328 22.44931 4
30.867328 23.571772 4
30.867328 24.694234 4
30.867328 25.816696 4
30.867328 26.939167 4
30.867322 28.061749 4
31.787713 1.123336 4
31.787695 2.24482 4
31.785851 3.3673585 4
31.785852 4.4898282 4
31.785852 5.6122904 4
31.785852 6.7347524 4
31.785852 7.8572145 4
31.785852 8.9796765 4
31.785852 10.102139 4
31.785852 11.224601 4
31.785852 12.347063 4
31.785852 13.469525 4
31.785852 14.591987 4
31.785852 15.714449 4
31.785852 16.836911 4
31.785852 17.959372 4
31.785852 19.081834 4
31.785852 20.204296 4
31.785852 21.326758 4
31.785852 22.44922 4
31.785852 23.571682 4
31.785852 24.694144 4
31.785852 25.816606 4
31.785852 26.93906 4
31.785853 28.06101 4
32.363214 1.1224093 4
32.362237 2.2449836 4
32.193719 3.3673968 4
32.193716 4.489857 4
32.193716 5.612319 4
32.193716 6.734781 4
32.193716 7.8572431 4
32.193716 8.9797051 4
32.193716 10.102167 4
32.193716 11.224629 4
32.193716 12.347091 4
32.193716 13.469553 4
32.193716 14.592015 4
32.193716 15.714477 4
32.193716 16.836939 4
32.193716 17.959402 4
32.193716 19.081864 4
32.193716 20.204326 4
32.193716 21.326788 4
32.193716 22.44925 4
32.193716 23.571712 4
32.193716 24.694174 4
32.193716 25.816636 4
32.193716 26.939099 4
32.193718 28.061388 4
33.112307 1.122738 4
33.112307 2.2449258 4
33.112309 3.3673861 4
33.112309 4.4898482 4
33.112309 5.6123102 4
33.112309 6.7347723 4
33.112309 7.8572343 4
33.112309 8.9796964 4
33.112309 10.102158 4
33.112309 11.22462 4
33.112309 12.347083 4
33.112309 13.469545 4
33.112309 14.592007 4
33.112309 15.714469 4
33.112309 16.836931 4
33.112309 17.959393 4
33.112309 19.081855 4
33.112309 20.204317 4
33.112309 21.326779 4
33.112309 22.449241 4
33.112309 23.571703 4
33.112309 24.694165 4
33.112309 25.816627 4
33.112309 26.939087 4
33.112309 28.061275 4
34.234772 1.1227378 4
34.234772 2.2449259 4
34.234772 3.3673861 4
34.234772 4.4898482 4
34.234772 5.6123102 4
34.234772 6.7347723 4
34.234772 7.8572343 4
34.234772 8.9796964 4
34.234772 10.102158 4
34.234772 11.22462 4
34.234772 12.347083 4
34.234772 13.469545 4
34.234772 14.592007 4
34.234772 15.714469 4
34.234772 16.836931 4
34.234772 17.959393 4
34.234772 19.081855 4
34.234772 20.204317 4
34.234772 21.326779 4
34.234772 22.449241 4
34.234772 23.571703 4
34.234772 24.694165 4
34.234772 25.816627 4
34.234772 26.939087 4
34.234772 28.061275 4
35.357234 1.1227378 4
35.357234 2.2449259 4
35.357234 3.3673861 4
35.357234 4.4898482 4
35.357234 5.6123102 4
35.357234 6.7347723 4
35.357234 7.8572343 4
35.357234 8.9796964 4
35.357234 10.102158 4
35.357234 11.22462 4
35.357234 12.347083 4
35.357234 13.469545 4
35.357234 14.592007 4
35.357234 15.714469 4
35.357234 16.836931 4
35.357234 17.959393 4
35.357234 19.081855 4
35.357234 20.204317 4
35.357234 21.326779 4
35.357234 22.449241 4
35.357234 23.571703 4
35.357234 24.694165 4
35.357234 25.816627 4
35.357234 26.939087 4
35.357234 28.061275 4
36.479696 1.1227378 4
36.479696 2.2449259 4
36.479696 3.3673861 4
36.479696 4.4898482 4
36.479696 5.6123102 4
36.479696 6.7347723 4
36.479696 7.8572343 4
36.479696 8.9796964 4
36.479696 10.102158 4
36.479696 11.22462 4
36.479696 12.347083 4
36.479696 13.469545 4
36.479696 14.592007 4
36.479696 15.714469 4
36.479696 16.836931 4
36.479696 17.959393 4
36.479696 19.081855 4
36.479696 20.204317 4
36.479696 21.326779 4
36.479696 22.449241 4
36.479696 23.571703 4
36.479696 24.694165 4
36.479696 25.816627 4
36.479696 26.939087 4
36.479696 28.061275 4
37.602158 1.1227378 4
37.602158 2.2449259 4
37.602158 3.3673861 4
37.602158 4.4898482 4
37.602158 5.6123102 4
37.602158 6.7347723 4
37.602158 7.8572343 4
37.602158 8.9796964 4
37.602158 10.102158 4
37.602158 11.22462 4
37.602158 12.347083 4
37.602158 13.469545 4
37.602158 14.592007 4
37.602158 15.714469 4
37.602158 16.836931 4
37.602158 17.959393 4
37.602158 19.081855 4
37.602158 20.204317 4
37.602158 21.326779 4
37.602158 22.449241 4
37.602158 23.571703 4
37.602158 24.694165 4
37.602158 25.816627 4
37.602158 26.939087 4
37.602158 28.061275 4
38.72462 1.1227378 4
38.72462 2.2449259 4
38.72462 3.3673861 4
38.72462 4.4898482 4
38.72462 5.6123102 4
38.72462 6.7347723 4
38.72462 7.8572343 4
38.72462 8.9796964 4
38.72462 10.102158 4
38.72462 11.22462 4
38.72462 12.347083 4
38.72462 13.469545 4
38.72462 14.592007 4
38.72462 15.714469 4
38.72462 16.836931 4
38.72462 17.959393 4
38.72462 19.081855 4
38.72462 20.204317 4
38.72462 21.326779 4
38.72462 22.449241 4
38.72462 23.571703 4
38.72462 24.694165 4
38.72462 25.816627 4
38.72462 26.939087 4
38.72462 28.061275 4
39.847083 1.1227378 4
39.847083 2.2449259 4
39.847083 3.3673861 4
39.847083 4.4898482 4
39.847083 5.6123102 4
39.847083 6.7347723 4
39.847083 7.8572343 4
39.847083 8.9796964 4
39.847083 10.102158 4
39.847083 11.22462 4
39.847083 12.347083 4
39.847083 13.469545 4
39.847083 14.592007 4
39.847083 15.714469 4
39.847083 16.836931 4
39.847083 17.959393 4
39.847083 19.081855 4
39.847083 20.204317 4
39.847083 21.326779 4
39.847083 22.449241 4
39.847083 23.571703 4
39.847083 24.694165 4
39.847083 25.816627 4
39.847083 26.939087 4
39.847083 28.061275 4
40.969545 1.1227378 4
40.969545 2.2449259 4
40.969545 3.3673861 4
40.969545 4.4898482 4
40.969545 5.6123102 4
40.969545 6.7347723 4
40.969545 7.8572343 4
40.969545 8.9796964 4
40.969545 10.102158 4
40.969545 11.22462 4
40.969545 12.347083 4
40.969545 13.469545 4
40.969545 14.592007 4
40.969545 15.714469 4
40.969545 16.836931 4
40.969545 17.959393 4
40.969545 19.081855 4
40.969545 20.204317 4
40.969545 21.326779 4
40.969545 22.449241 4
40.969545 23.571703 4
40.969545 24.694165 4
40.969545 25.816627 4
40.969545 26.939087 4
40.969545 28.061275 4
42.092007 1.1227378 4
42.092007 2.2449259 4
42.092007 3.3673861 4
42.092007 4.4898482 4
42.092007 5.6123102 4
42.092007 6.7347723 4
42.092007 7.8572343 4
42.092007 8.9796964 4
42.092007 10.102158 4
42.092007 11.22462 4
42.092007 12.347083 4
42.092007 13.469545 4
42.092007 14.592007 4
42.092007 15.714469 4
42.092007 16.836931 4
42.092007 17.959393 4
42.092007 19.081855 4
42.092007 20.204317 4
42.092007 21.326779 4
42.092007 22.449241 4
42.092007 23.571703 4
42.092007 24.694165 4
42.092007 25.816627 4
42.092007 26.939087 4
42.092007 28.061275 4
43.214469 1.1227378 4
43.214469 2.2449259 4
43.214469 3.3673861 4
43.214469 4.4898482 4
43.214469 5.6123102 4
43.214469 6.7347723 4
43.214469 7.8572343 4
43.214469 8.9796964 4
43.214469 10.102158 4
43.214469 11.22462 4
43.214469 12.347083 4
43.214469 13.469545 4
43.214469 14.592007 4
43.214469 15.714469 4
43.214469 16.836931 4
43.214469 17.959393 4
43.214469 19.081855 4
43.214469 20.204317 4
43.214469 21.326779 4
43.214469 22.449241 4
43.214469 23.571703 4
43.214469 24.694165 4
43.214469 25.816627 4
43.214469 26.939087 4
43.214469 28.061275 4
44.336931 1.1227378 4
44.336931 2.2449259 4
44.336931 3.3673861 4
44.336931 4.4898482 4
44.336931 5.6123102 4
44.336931 6.7347723 4
44.336931 7.8572343 4
44.336931 8.9796964 4
44.336931 10.102158 4
44.336931 11.22462 4
44.336931 12.347083 4
44.336931 13.469545 4
44.336931 14.592007 4
44.336931 15.714469 4
44.336931 16.836931 4
44.336931 17.959393 4
44.336931 19.081855 4
44.336931 20.204317 4
44.336931 21.326779 4
44.336931 22.449241 4
44.336931 23.571703 4
44.336931 24.694165 4
44.336931 25.816627 4
44.336931 26.939087 4
44.336931 28.061275 4
45.459393 1.1227378 4
45.459393 2.2449259 4
45.459393 3.3673861 4
45.459393 4.4898482 4
45.459393 5.6123102 4
45.459393 6.7347723 4
45.459393 7.8572343 4
45.459393 8.9796964 4
45.459393 10.102158 4
45.459393 11.22462 4
45.459393 12.347083 4
45.459393 13.469545 4
45.459393 14.592007 4
45.459393 15.714469 4
45.459393 16.836931 4
45.459393 17.959393 4
45.459393 19.081855 4
45.459393 20.204317 4
45.459393 21.326779 4
45.459393 22.449241 4
45.459393 23.571703 4
45.459393 24.694165 4
45.459393 25.816627 4
45.459393 26.939087 4
45.459393 28.061275 4
46.581855 1.1227378 4
46.581855 2.2449259 4
46.581855 3.3673861 4
46.581855 4.4898482 4
46.581855 5.6123102 4
46.581855 6.7347723 4
46.581855 7.8572343 4
46.581855 8.9796964 4
46.581855 10.102158 4
46.581855 11.22462 4
46.581855 12.347083 4
46.581855 13.469545 4
46.581855 14.592007 4
46.581855 15.714469 4
46.581855 16.836931 4
46.581855 17.959393 4
46.581855 19.081855 4
46.581855 20.204317 4
46.581855 21.326779 4
46.581855 22.449241 4
46.581855 23.571703 4
46.581855 24.694165 4
46.581855 25.816627 4
46.581855 26.939087 4
46.581855 28.061275 4
47.704317 1.1227378 4
47.704317 2.2449259 4
47.704317 3.3673861 4
47.704317 4.4898482 4
47.704317 5.6123102 4
47.704317 6.7347723 4
47.704317 7.8572343 4
47.704317 8.9796964 4
47.704317 10.102158 4
47.704317 11.22462 4
47.704317 12.347083 4
47.704317 13.469545 4
47.704317 14.592007 4
47.704317 15.714469 4
47.704317 16.836931 4
47.704317 17.959393 4
47.704317 19.081855 4
47.704317 20.204317 4
47.704317 21.326779 4
47.704317 22.449241 4
47.704317 23.571703 4
47.704317 24.694165 4
47.704317 25.816627 4
47.704317 26.939087 4
47.704317 28.061275 4
48.826779 1.1227378 4
48.826779 2.2449259 4
[...]
POINT_DATA 1250
SCALARS m double
LOOKUP_TABLE default
1
1
1
1
1
1
1
1
1
1
1
1
1
1
1
1
1
1
1
1
1
1
1
1
1
1
1
1
1
1
1
1
1
1
1
1
1
1
1
1
1
1
1
1
1
1
1
1
1
1
1
1
1
1
1
1
1
1
1
1
1
1
1
1
1
1
1
1
1
1
1
1
1
1
1
1
1
1
1
1
1
1
1
1
1
1
1
1
1
1
1
1
1
1
1
1
1
1
1
1
1
1
1
1
1
1
1
1
1
1
1
1
1
1
1
1
1
1
1
1
1
1
1
1
1
1
1
1
1
1
1
1
1
1
1
1
1
1
1
1
1
1
1
1
1
1
1
1
1
1
1
1
1
1
1
1
1
1
1
1
1
1
1
1
1
1
1
1
1
1
1
1
1
1
1
1
1
1
1
1
1
1
1
1
1
1
1
1
1
1
1
1
1
1
1
1
1
1
1
1
1
1
1
1
1
1
1
1
1
1
1
1
1
1
1
1
1
1
1
1
1
1
1
1
1
1
1
1
1
1
1
1
1
1
1
1
1
1
1
1
1
1
1
1
1
1
1
1
1
1
1
1
1
1
1
1
1
1
1
1
1
1
1
1
1
1
1
1
1
1
1
1
1
1
1
1
1
1
1
1
1
1
1
1
1
1
1
1
1
1
1
1
1
1
1
1
1
1
1
1
1
1
1
1
1
1
1
1
1
1
1
1
1
1
1
1
1
1
1
1
1
1
1
1
1
1
1
1
1
1
1
1
1
1
1
1
1
1
1
1
1
1
1
1
1
1
1
1
1
1
1
1
1
1
1
1
1
1
1
1
1
1
1
1
1
1
1
1
1
1
1
1
1
1
1
1
1
1
1
1
1
1
1
1
1
1
1
1
1
1
1
1
1
1
1
1
1
1
1
1
1
1
1
1
1
1
1
1
1
1
1
1
1
1
1
1
1
1
1
1
1
1
1
1
1
1
1
1
1
1
1
1
1
1
1
1
1
1
1
1
1
1
1
1
1
1
1
1
1
1
1
1
1
1
1
1
1
1
1
1
1
1
1
1
1
1
1
1
1
1
1
1
1
1
1
1
1
1
1
1
1
1
1
1
1
1
1
1
1
1
1
1
1
1
1
1
1
1
1
1
1
1
1
1
1
1
1
1
1
1
1
1
1
1
1
1
1
1
1
1
1
1
1
1
1
1
1
1
1
1
1
1
1
1
1
1
1
1
1
1
1
1
1
1
1
1
1
1
1
1
1
1
1
1
1
1
1
1
1
1
1
1
1
1
1
1
1
1
1
1
1
1
1
1
1
1
1
1
1
1
1
1
1
1
1
1
1
1
1
1
1
1
1
1
1
1
1
1
1
1
1
1
1
1
1
1
1
1
1
1
1
1
1
1
1
1
1
1
1
1
1
1
1
1
1
1
1
1
1
1
1
1
1
1
1
1
1
1
1
1
1
1
1
1
1
1
1
1
1
1
1
1
1
1
1
1
1
1
1
1
1
1
1
1
1
1
1
1
1
1
1
1
1
1
1
1
1
1
1
1
1
1
1
1
1
1
1
1
1
1
1
1
1
1
1
1
1
1
1
1
1
1
1
1
1
1
1
1
1
1
1
1
1
1
1
1
1
1
1
1
1
1
1
1
1
1
1
1
1
1
1
1
1
1
1
1
1
1
1
1
1
1
1
1
1
1
1
1
1
1
1
1
1
1
1
1
1
1
1
1
1
1
1
1
1
1
1
1
1
1
1
1
1
1
1
1
1
1
1
1
1
1
1
1
1
1
1
1
1
1
1
1
1
1
1
1
1
1
1
1
1
1
1
1
1
1
1
1
1
1
1
1
1
1
1
1
1
1
1
1
1
1
1
1
1
1
1
1
1
1
1
1
1
1
1
1
1
1
1
1
1
1
1
1
1
1
1
1
1
1
1
1
1
1
1
1
1
1
1
1
1
1
1
1
1
1
1
1
1
1
1
1
1
1
1
1
1
1
1
1
1
1
1
1
1
1
1
1
1
1
1
1
1
1
1
1
1
1
1
1
1
1
1
1
1
1
1
1
1
1
1
1
1
1
1
1
1
1
1
1
1
1
1
1
1
1
1
1
1
1
1
1
1
1
1
1
1
1
1
1
1
1
1
1
1
1
1
1
1
1
1
1
1
1
1
1
1
1
1
1
1
1
1
1
1
1
1
1
1
1
1
1
1
1
1
1
1
1
1
1
1
1
1
1
1
1
1
1
1
1
1
1
1
1
1
1
1
1
1
1
1
1
1
1
1
1
1
1
1
1
1
1
1
1
1
1
1
1
1
1
1
1
1
1
1
1
1
1
1
1
1
1
1
1
1
1
1
1
1
1
1
1
1
1
1
1
1
1
1
1
1
1
1
1
1
1
1
1
1
1
1
1
1
1
1
1
1
1
1
1
1
1
1
1
1
1
1
1
1
1
1
1
1
1
1
1
1
1
1
1
1
1
1
1
1
1
1
1
1
1
1
1
1
1
1
1
1
1
1
1
1
1
1
1
1
1
1
1
1
1
1
1
1
1
1
1
1
1
1
1
1
1
1
1
1
1
1
1
1
1
1
1
1
1
1
1
1
1
1
1
1
1
1
1
1
1
1
1
1
1
1
1
1
1
1
1
1
1
1
1
1
1
1
1
1
1
1
1
1
1
1
1
1
1
1
1
1
1
1
1
1
1
1
1
1
1
1
1
1
1
1
1
1
1
1
1
1
1
1
1
1
1
1
1
1
1
1
1
1
1
1
1
1
1
1
1
1
1
1
1
1
1
1
1
1
1
1
1
1
1
1
1
1
1
1
1
1
1
1
1
VECTORS v double
-9.9739314 0.097978242 0
-10.014821 -0.025276848 0
-10.028666 -0.0080498335 0
-10.02866 -0.0071562617 0
-10.02866 -0.0071196383 0
-10.02866 -0.0071359251 0
-10.02866 -0.0071278357 0
-10.02866 -0.0071375667 0
-10.02866 -0.0071336764 0
-10.02866 -0.007133679 0
-10.02866 -0.0071176699 0
-10.02866 -0.0072346756 0
-10.02866 -0.007223964 0
-10.02866 -0.0072723226 0
-10.02866 -0.007268927 0
-10.028661 -0.005701895 0
-10.028661 -0.0057019185 0
-10.028661 -0.0056834294 0
-10.028661 -0.0056829414 0
-10.028661 -0.0060687082 0
-10.028661 -0.0060687049 0
-10.028661 -0.0060686707 0
-10.028661 -0.0061264428 0
-10.02866 -0.0067688429 0
-10.028564 -0.034856482 0
15.259765 -0.088247839 0
10.914861 0.022780447 0
10.028891 0.0073143926 0
10.028898 0.0063707151 0
10.028897 0.0063382141 0
10.028897 0.0063514958 0
10.028897 0.0063448989 0
10.028897 0.0063528348 0
10.028897 0.0063496623 0
10.028897 0.0063496641 0
10.028897 0.0063366097 0
10.028892 0.0064320298 0
10.028883 0.0064233087 0
10.028892 0.0064627341 0
10.028883 0.0064599274 0
10.028884 0.0052051279 0
10.028882 0.0052051195 0
10.028882 0.0051900408 0
10.028882 0.0051896485 0
10.028881 0.0055042582 0
10.028881 0.0055042614 0
10.028881 0.0055042319 0
10.028881 0.0055513504 0
10.028877 0.0062017988 0
10.028781 0.030527534 0
-10.003381 0.02579106 0
-10.002613 -0.0041419286 0
-10.027875 -0.0014376328 0
-10.027875 -0.0010790549 0
-10.027875 -0.0010740371 0
-10.027875 -0.0010740372 0
-10.027875 -0.0010740372 0
-10.027875 -0.0010740372 0
-10.027875 -0.0010740372 0
-10.027875 -0.0010740372 0
-10.027875 -0.0010740375 0
-10.027875 -0.0010740338 0
-10.027875 -0.0010740562 0
-10.027875 -0.0010740315 0
-10.027875 -0.0010740082 0
-10.027875 -0.0011208748 0
-10.027875 -0.0011208714 0
-10.027875 -0.0011208714 0
-10.027875 -0.0011208715 0
-10.027875 -0.0011208638 0
-10.027875 -0.0011208639 0
-10.027875 -0.0011208587 0
-10.027875 -0.001120777 0
-10.027875 -0.0014725506 0
-10.027821 -0.016558702 0
11.209409 -0.016684025 0
11.202365 0.0033515509 0
10.027769 0.0011524589 0
10.027702 0.00087965232 0
10.027702 0.00087594857 0
10.027702 0.00087594844 0
10.027702 0.00087594842 0
10.027702 0.00087594846 0
10.027702 0.00087594845 0
10.027702 0.00087594846 0
10.027702 0.00087594869 0
10.027702 0.00087594559 0
10.027702 0.00087596403 0
10.027702 0.00087594384 0
10.027702 0.00087592538 0
10.027701 0.00091414626 0
10.027701 0.00091414419 0
10.027701 0.00091414418 0
10.027701 0.00091414427 0
10.027701 0.00091413817 0
10.027701 0.00091413825 0
10.027701 0.00091413409 0
10.027701 0.00091410224 0
10.027701 0.0011709609 0
10.027715 0.0091624505 0
-10.000654 0.0022235077 0
-10.000657 5.6889495e-06 0
-10.000165 -8.6932242e-06 0
-10.000159 -2.61851e-07 0
-10.000159 5.5283437e-10 0
-10.000159 5.5286328e-10 0
-10.000159 5.5286428e-10 0
-10.000159 5.5287237e-10 0
-10.000159 5.5287098e-10 0
-10.000159 5.5286825e-10 0
-10.000159 5.5285578e-10 0
-10.000159 5.5296761e-10 0
-10.000159 5.5294941e-10 0
-10.000159 5.52821e-10 0
-10.000159 5.5015143e-10 0
-10.000159 5.7323336e-10 0
-10.000159 5.755247e-10 0
-10.000159 5.7538845e-10 0
-10.000159 5.7538816e-10 0
-10.000159 5.7573146e-10 0
-10.000159 5.7571717e-10 0
-10.000159 6.0333692e-10 0
-10.000159 1.3045427e-08 0
-10.000158 -1.4331757e-05 0
-10.000149 -0.0022152658 0
-10.000002 0.0022072951 0
-10.000003 1.383952e-05 0
-10.000002 -2.3334405e-07 0
-10.000001 -2.6924511e-11 0
-10.000001 -1.319856e-12 0
-10.000001 -1.3627841e-12 0
-10.000001 -1.362794e-12 0
-10.000001 -1.3634228e-12 0
-10.000001 -1.3613088e-12 0
-10.000001 -1.364068e-12 0
-10.000001 -1.3628032e-12 0
-10.000001 -1.3614543e-12 0
-10.000001 -1.3642035e-12 0
-10.000001 -1.3628232e-12 0
-10.000001 -1.4218257e-12 0
-10.000001 -1.4300058e-12 0
-10.000001 -1.4235309e-12 0
-10.000001 -1.4221897e-12 0
-10.000001 -1.4221302e-12 0
-10.000001 -1.4209939e-12 0
-10.000001 -1.4351627e-12 0
-10.000001 2.6022391e-11 0
-10.000001 1.2290247e-08 0
-10.000001 -1.4061641e-05 0
-10.000001 -0.0022070742 0
-10 0.0022068963 0
-10 1.4061669e-05 0
-10 -1.229163e-08 0
-10 -2.7389428e-11 0
-10 1.2038885e-14 0
-10 7.540619e-18 0
-10 -2.2017684e-18 0
-10 -6.3084885e-16 0
-10 1.4826757e-15 0
-10 -1.2765723e-15 0
-10 -2.1677762e-17 0
-10 1.2361361e-15 0
-10 -1.2692223e-15 0
-10 -5.3484914e-17 0
-10 2.5462601e-17 0
-10 1.3195365e-15 0
-10 -1.32158e-15 0
-10 -4.6860362e-18 0
-10 5.0992944e-17 0
-10 1.2169882e-15 0
-10 -1.2960993e-14 0
-10 2.7444633e-11 0
-10 1.2291675e-08 0
-10 -1.4061669e-05 0
-10 -0.0022068963 0
-10 0.0022068963 0
-10 1.4061669e-05 0
-10 -1.2291675e-08 0
-10 -2.7445007e-11 0
-10 1.2039727e-14 0
-10 7.8090714e-18 0
-10 -1.8869741e-18 0
-10 -6.3069063e-16 0
-10 1.4827781e-15 0
-10 -1.2763686e-15 0
-10 -2.1287716e-17 0
-10 1.2364885e-15 0
-10 -1.2689757e-15 0
-10 -5.3385568e-17 0
-10 2.5344333e-17 0
-10 1.3196521e-15 0
-10 -1.3214402e-15 0
-10 -4.5611008e-18 0
-10 5.1059553e-17 0
-10 1.2171415e-15 0
-10 -1.2960765e-14 0
-10 2.7444633e-11 0
-10 1.2291675e-08 0
-10 -1.4061669e-05 0
-10 -0.0022068963 0
-10 0.0022068963 0
-10 1.4061669e-05 0
-10 -1.2291675e-08 0
-10 -2.7445008e-11 0
-10 1.2039591e-14 0
-10 7.6812636e-18 0
-10 -1.8779452e-18 0
-10 -6.3075594e-16 0
-10 1.4826793e-15 0
-10 -1.276268e-15 0
-10 -2.1415489e-17 0
-10 1.2362331e-15 0
-10 -1.2688754e-15 0
-10 -5.337636e-17 0
-10 2.5380415e-17 0
-10 1.3196647e-15 0
-10 -1.3214011e-15 0
-10 -4.5622572e-18 0
-10 5.1073306e-17 0
-10 1.2170895e-15 0
-10 -1.2960866e-14 0
-10 2.7444633e-11 0
-10 1.2291675e-08 0
-10 -1.4061669e-05 0
-10 -0.0022068963 0
-10 0.0022068963 0
-10 1.4061669e-05 0
-10 -1.2291675e-08 0
-10 -2.7444446e-11 0
-10 1.2619234e-14 0
-10 3.4151176e-17 0
-10 -1.9676195e-18 0
-10 -6.3124069e-16 0
-10 1.4827308e-15 0
-10 -1.276248e-15 0
-10 -2.1927517e-17 0
-10 1.235553e-15 0
-10 -1.2700089e-15 0
-10 -5.2599266e-17 0
-10 2.5940984e-17 0
-10 1.3201848e-15 0
-10 -1.3215855e-15 0
-10 -4.5635779e-18 0
-10 5.1247658e-17 0
-10 1.2165326e-15 0
-10 -1.2961372e-14 0
-10 2.7444632e-11 0
-10 1.2291675e-08 0
-10 -1.4061669e-05 0
-10 -0.0022068963 0
-10 0.0022068963 0
-10 1.4061669e-05 0
-10 -1.2291675e-08 0
-10 -3.009769e-11 0
-10 -2.6404272e-12 0
-10 3.9602187e-16 0
-10 4.9562576e-20 0
-10 -6.3004924e-16 0
-10 1.4826962e-15 0
-10 -1.2761327e-15 0
-10 -2.093054e-17 0
-10 1.2370691e-15 0
-10 -1.2675554e-15 0
-10 -5.4494834e-17 0
-10 2.5029676e-17 0
-10 1.3191049e-15 0
-10 -1.3214887e-15 0
-10 -4.5650094e-18 0
-10 5.1204873e-17 0
-10 1.2173882e-15 0
-10 -1.2960642e-14 0
-10 2.7444635e-11 0
-10 1.2291675e-08 0
-10 -1.4061669e-05 0
-10 -0.0022068963 0
-10 0.0022068963 0
-10 1.4061669e-05 0
-10 -1.2291675e-08 0
-10 -2.7445103e-11 0
-9.9999999 1.1932404e-14 0
-9.9999999 7.6590406e-18 0
-9.9999999 -1.731121e-18 0
-9.9999999 -6.2985092e-16 0
-9.9999999 1.4824756e-15 0
-9.9999999 -1.2760228e-15 0
-9.9999999 -2.088416e-17 0
-9.9999999 1.2370583e-15 0
-9.9999999 -1.2670488e-15 0
-9.9999999 -5.50419e-17 0
-9.9999999 2.5063489e-17 0
-9.9999999 1.3222049e-15 0
-9.9999999 -1.1776394e-15 0
-9.9999999 1.4217066e-16 0
-9.9999999 1.4531451e-16 0
-9.9999999 1.3073607e-15 0
-9.9999999 -1.2958752e-14 0
-9.9999999 2.7444635e-11 0
-9.9999999 1.2291675e-08 0
-9.9999999 -1.4061669e-05 0
-9.9999999 -0.0022068963 0
-9.9999999 0.0022068963 0
-9.9999999 1.4061667e-05 0
-9.9999999 -1.2293369e-08 0
-9.9999999 -2.4792188e-11 0
-9.9999999 2.6645127e-12 0
-9.9999999 -4.0478707e-16 0
-9.9999999 -3.7254423e-18 0
-9.9999999 -6.3122774e-16 0
-9.9999999 1.483245e-15 0
-9.9999999 -1.2764227e-15 0
-9.9999999 -1.913438e-17 0
-9.9999999 1.2386219e-15 0
-9.9999999 -1.2702822e-15 0
-9.9999999 -5.2037773e-17 0
-9.9999999 2.5598746e-17 0
-9.9999999 1.3037579e-15 0
-9.9999999 -1.3541908e-12 0
-9.9999999 -1.3528911e-12 0
-9.9999999 -1.2371895e-12 0
-9.9999999 -1.2359605e-12 0
-9.9999999 -1.2929376e-14 0
-9.9999999 2.7444633e-11 0
-9.9999999 1.2291675e-08 0
-9.9999999 -1.4061669e-05 0
-9.9999999 -0.0022068963 0
-9.9999999 0.0022068963 0
-9.9999999 1.4061669e-05 0
-9.9999999 -1.2291503e-08 0
-9.9999999 -2.7445468e-11 0
-9.9999999 1.157126e-14 0
-9.9999999 -1.9259174e-17 0
-9.9999999 1.2318416e-17 0
-9.9999999 -6.1898884e-16 0
-9.9999999 1.3495394e-15 0
-9.9999999 -1.4132354e-15 0
-9.9999999 -1.7169331e-13 0
-9.9999999 -1.7043109e-13 0
-9.9999999 -1.2693487e-15 0
-9.9999999 -5.0848195e-17 0
-9.9999999 2.635252e-17 0
-9.9999999 1.318649e-15 0
-9.9999999 -1.3102634e-15 0
-9.9999998 6.0903154e-18 0
-9.9999998 3.6675906e-17 0
-9.9999997 -7.3456094e-13 0
-9.9999997 -7.487309e-13 0
-9.9999997 2.7444628e-11 0
-9.9999997 1.2291675e-08 0
-9.9999997 -1.4061669e-05 0
-9.9999997 -0.0022068963 0
-9.9999997 0.0022068963 0
-9.9999997 1.4061671e-05 0
-9.9999998 -1.2289982e-08 0
-9.9999998 -2.7445203e-11 0
-9.9999998 1.2036832e-14 0
-9.9999998 6.0130228e-18 0
-9.9999998 -4.0918606e-13 0
-9.9999998 -4.2168418e-13 0
-9.9999998 -1.5295313e-13 0
-9.9999998 -1.43835e-13 0
-9.9999998 -1.2260277e-17 0
-9.9999997 1.2408402e-15 0
-9.9999997 -1.2580267e-15 0
-9.9999997 1.7284991e-16 0
-9.9999997 5.6026772e-16 0
-9.9999997 1.6127748e-15 0
-9.9999997 9.4228723e-13 0
-9.9999997 9.4369285e-13 0
-9.9999997 1.2372918e-12 0
-9.9999997 1.2384405e-12 0
-9.9999996 -1.2944333e-14 0
-9.9999996 2.7444634e-11 0
-9.9999996 1.2291675e-08 0
-9.9999996 -1.406167e-05 0
-9.9999996 -0.0022068963 0
-9.9999996 0.0022068963 0
-9.9999996 1.4061669e-05 0
-9.9999996 -1.2291847e-08 0
-9.9999996 -2.7445017e-11 0
-9.9999996 1.2040178e-14 0
-9.9999996 1.5695771e-17 0
-9.9999996 6.5361527e-18 0
-9.9999996 -6.3185272e-16 0
-9.9999995 1.4318978e-15 0
-9.9999995 -1.3275625e-15 0
-9.9999995 1.7164537e-13 0
-9.9999995 1.7290554e-13 0
-9.9999995 -1.181586e-15 0
-9.9999995 -1.674422e-12 0
-9.9999995 -3.7890612e-12 0
-9.9999995 -2.7237318e-14 0
-9.9999995 2.0838528e-12 0
-9.9999995 -1.3901058e-16 0
-9.9999995 -1.3495799e-17 0
-9.9999995 7.3727954e-13 0
-9.9999995 7.2317333e-13 0
-9.9999995 2.7444652e-11 0
-9.9999995 1.2291675e-08 0
-9.9999995 -1.4061669e-05 0
-9.9999993 -0.0022068963 0
-9.9999993 0.0022068963 0
-9.9999993 1.4061669e-05 0
-9.9999993 -1.2291675e-08 0
-9.9999993 -2.7444995e-11 0
-9.9999993 1.2022528e-14 0
-9.9999993 -3.3818051e-13 0
-9.9999993 7.1014776e-14 0
-9.9999993 4.2042055e-13 0
-9.9999993 1.559191e-13 0
-9.9999993 1.412834e-13 0
-9.9999993 -3.4807239e-17 0
-9.9999993 1.285918e-15 0
-9.9999993 -5.7888789e-16 0
-9.9999993 1.186671e-16 0
-9.9999993 5.5948743e-17 0
-9.9999992 5.0386292e-15 0
-9.9999993 7.4536474e-13 0
-9.9999993 7.4155699e-13 0
-9.9999993 3.3236495e-13 0
-9.9999993 -1.7805639e-12 0
-9.9999993 -2.0764376e-12 0
-9.9999993 2.7495316e-11 0
-9.9999993 1.2293327e-08 0
-9.9999993 -1.4061666e-05 0
-9.9999993 -0.0022068963 0
-9.9999993 0.0022068963 0
-9.9999993 1.4061667e-05 0
-9.9999993 -1.2291346e-08 0
-9.9999993 -2.711306e-11 0
-9.9999993 3.416669e-13 0
-9.9999993 -4.1582718e-15 0
-9.9999993 3.0642302e-17 0
-9.9999993 -6.3643625e-16 0
-9.9999993 1.6736291e-15 0
-9.9999993 -1.1077579e-15 0
-9.9999993 -3.368018e-18 0
-9.9999993 4.8445905e-15 0
-9.9999993 -2.6586975e-12 0
-9.9999993 1.6645484e-12 0
-9.9999993 6.78468e-12 0
-9.9999993 -3.9453079e-11 0
-9.9999993 4.3284816e-11 0
-9.9999993 5.3296372e-11 0
-9.9999993 5.3298512e-11 0
-9.9999993 5.3299716e-11 0
-9.9999992 5.3280035e-11 0
-9.9999991 8.0738011e-11 0
-9.9999991 1.2344973e-08 0
-9.9999993 -1.4061616e-05 0
-9.9999993 -0.0022068962 0
-9.9999993 0.0022068963 0
-9.9999992 1.4062057e-05 0
-9.9999992 -1.2238442e-08 0
-9.9999992 2.5843527e-11 0
-9.9999992 8.4998644e-11 0
-9.9999992 4.692729e-13 0
-9.9999992 6.737269e-13 0
-9.9999992 3.2747258e-13 0
-9.9999992 3.2958114e-13 0
-9.9999992 3.3077277e-13 0
-9.9999992 2.9958347e-12 0
-9.9999992 -3.6824756e-11 0
-9.9999992 4.5927436e-11 0
-9.9999991 5.3848031e-11 0
-9.9999992 5.1654016e-11 0
-9.9999992 -5.4474298e-10 0
-9.9999987 4.8759462e-07 0
-9.9999987 4.8700396e-07 0
-9.9999987 4.8700176e-07 0
-9.9999987 4.8700387e-07 0
-9.9999987 4.8700414e-07 0
-9.9999986 4.8702928e-07 0
-9.9999986 4.9929191e-07 0
-9.9999986 -1.3574668e-05 0
-9.9999986 -0.0022064093 0
-9.9999913 0.0022068957 0
-9.9999986 1.4549606e-05 0
-9.9999986 4.7471236e-07 0
-9.9999986 4.8697663e-07 0
-9.9999986 4.8759762e-07 0
-9.9999987 -5.4273306e-10 0
-9.9999987 5.0795616e-11 0
-9.9999987 5.3973806e-11 0
-9.9999987 5.397498e-11 0
-9.9999987 5.3973074e-11 0
-9.9999987 5.1785204e-11 0
-9.9999987 -6.171292e-10 0
-9.9999982 4.8766735e-07 0
-9.9999981 4.8709317e-07 0
-9.9999981 4.8708798e-07 0
-9.9999981 4.8709856e-07 0
-9.9999981 4.8718341e-07 0
-9.9999981 4.8714359e-07 0
-9.9999981 4.8714361e-07 0
-9.9999981 4.8714274e-07 0
-9.9999981 4.8714272e-07 0
-9.9999981 4.8717188e-07 0
-9.999998 4.9942281e-07 0
-9.999998 -1.3574508e-05 0
-9.999998 -0.0022064091 0
-9.9999906 0.0022068956 0
-9.9999979 1.4550141e-05 0
-9.9999979 4.7487384e-07 0
-9.9999979 4.8713594e-07 0
-9.9999979 4.871636e-07 0
-9.9999979 4.8707885e-07 0
-9.9999978 4.8711055e-07 0
-9.9999978 4.8710948e-07 0
-9.9999978 4.8710948e-07 0
-9.9999978 4.8711054e-07 0
-9.9999978 4.871039e-07 0
-9.9999978 4.8611777e-07 0
-9.9999941 3.4103463e-06 0
-9.9999941 3.4093136e-06 0
-9.9999941 3.4093098e-06 0
-9.9999941 3.409312e-06 0
-9.9999941 3.4093123e-06 0
-9.9999941 3.4093103e-06 0
-9.9999941 3.4092115e-06 0
-9.9999941 3.4094225e-06 0
-9.9999941 3.4094393e-06 0
-9.9999941 3.4094661e-06 0
-9.9999941 3.4215207e-06 0
-9.9999936 -1.0164992e-05 0
-9.9999936 -0.0022029988 0
-9.9999351 0.0022068943 0
-9.9999935 1.7962435e-05 0
-9.9999935 3.8841792e-06 0
-9.9999935 3.8964306e-06 0
-9.9999935 3.8964447e-06 0
-9.9999935 3.8964739e-06 0
-9.9999935 3.8964759e-06 0
-9.9999935 3.8964768e-06 0
-9.9999935 3.8964768e-06 0
-9.9999935 3.896476e-06 0
-9.9999935 3.896476e-06 0
-9.9999934 3.8965e-06 0
-9.9999934 3.8966424e-06 0
-9.9999934 3.8965682e-06 0
-9.9999934 3.8965548e-06 0
-9.9999934 3.8965838e-06 0
-9.9999933 3.8965862e-06 0
-9.9999933 3.8965808e-06 0
-9.9999933 3.8951051e-06 0
-9.9999918 5.3589628e-06 0
-9.9999918 5.3574868e-06 0
-9.9999917 5.3575086e-06 0
-9.9999917 5.3697747e-06 0
-9.9999917 -8.7041484e-06 0
-9.9999917 -0.0022015377 0
-9.9999114 0.0022068931 0
-9.9999917 1.942471e-05 0
-9.9999917 5.3452513e-06 0
-9.9999917 5.3575055e-06 0
-9.9999917 5.3573192e-06 0
-9.9999912 5.8447576e-06 0
-9.9999912 5.8445528e-06 0
-9.9999912 5.8445563e-06 0
-9.9999912 5.8445196e-06 0
-9.9999912 5.8446057e-06 0
-9.9999911 5.8446133e-06 0
-9.9999911 5.8446133e-06 0
-9.9999912 5.8446115e-06 0
-9.9999912 5.844579e-06 0
-9.9999912 5.8444437e-06 0
-9.9999906 6.3318753e-06 0
-9.9999906 6.3316724e-06 0
-9.9999906 6.3316709e-06 0
-9.9999906 6.3316904e-06 0
-9.9999906 6.331899e-06 0
-9.9999905 6.331804e-06 0
-9.9999905 6.3318336e-06 0
-9.9999905 6.3440986e-06 0
-9.9999905 -7.7298527e-06 0
-9.9999905 -0.0022005634 0
-9.9999097 0.0022069236 0
-10.000006 1.9428519e-05 0
-10.000005 5.8328749e-06 0
-10.000005 6.3317979e-06 0
-10.000005 6.3318076e-06 0
-10.000004 6.3317862e-06 0
-10.000004 7.3059421e-06 0
-10.000003 7.7930612e-06 0
-10.000003 7.7923343e-06 0
-10.000002 8.5239814e-06 0
-10.000002 8.5233935e-06 0
-10.000002 8.5233927e-06 0
-10.000002 8.5233874e-06 0
-10.000002 8.5229168e-06 0
-10.000002 9.0108397e-06 0
-10.000002 9.0103957e-06 0
-10.000002 9.0103815e-06 0
-10.000002 9.0103815e-06 0
-10.000002 9.0103812e-06 0
-10.000002 9.010383e-06 0
-10.000002 9.0104318e-06 0
-9.999994 9.0099057e-06 0
-9.999994 9.022142e-06 0
-9.999994 -5.0550843e-06 0
-9.9999941 -0.0021979145 0
-10.001937 0.0020845892 0
-10.002187 2.3171514e-05 0
-10.002187 9.0007317e-06 0
-10.002186 9.5007913e-06 0
-10.002186 9.500177e-06 0
-10.002186 9.5001752e-06 0
-10.002186 9.5001831e-06 0
-10.002186 9.5008606e-06 0
-10.002194 9.4996123e-06 0
-10.002194 9.5003651e-06 0
-10.002193 9.500305e-06 0
-10.002193 9.9877227e-06 0
-10.002193 9.9876984e-06 0
-10.002193 9.9877044e-06 0
-10.002193 9.9877721e-06 0
-10.002193 9.987743e-06 0
-10.002193 9.987743e-06 0
-10.002193 9.987743e-06 0
-10.002193 9.987743e-06 0
-10.002193 9.9877481e-06 0
-10.002193 9.9884849e-06 0
-10.002194 9.5000502e-06 0
-10.002185 9.5118463e-06 0
-10.002185 -4.1643668e-06 0
-10.002063 -0.0020750956 0
10.050604 -0.021957352 0
10.027977 0.02683641 0
10.028618 0.0057395687 0
10.028631 0.0081164531 0
10.02863 0.0080878693 0
10.02863 0.0081060001 0
10.02863 0.0080763871 0
10.02863 0.0081106384 0
10.02863 0.0080955886 0
10.028631 0.0080630861 0
10.028631 0.0080142298 0
10.028622 0.0083923396 0
10.028622 0.0083552176 0
10.028622 0.0084918541 0
10.028622 0.00848473 0
10.028624 0.0048503884 0
10.028624 0.0048765016 0
10.028623 0.0048181541 0
10.028623 0.0048093869 0
10.028623 0.005632092 0
10.028624 0.0056008689 0
10.028615 0.0056320353 0
10.028606 0.0058204437 0
10.028606 0.0051301455 0
10.028537 -0.024082754 0
-8.6104742 0.022006739 0
-10.012725 -0.024992358 0
-10.029034 -0.0047407278 0
-10.028982 -0.0072894386 0
-10.028981 -0.0072639352 0
-10.028981 -0.0072770585 0
-10.028981 -0.0072458211 0
-10.028981 -0.0072817663 0
-10.028981 -0.0072657452 0
-10.028981 -0.0072258922 0
-10.028981 -0.0071756781 0
-10.028981 -0.0075689143 0
-10.028981 -0.0075299885 0
-10.028981 -0.007668606 0
-10.029021 -0.0076617021 0
-10.028979 -0.0041506465 0
-10.028981 -0.0041713801 0
-10.028981 -0.004111106 0
-10.028981 -0.0041008769 0
-10.028981 -0.0048940298 0
-10.028981 -0.0048557563 0
-10.028981 -0.0048939821 0
-10.028983 -0.005089494 0
-10.028983 -0.0043913907 0
-10.028912 0.021015112 0
-6.2624493 0.0026619288 0
-6.7096063 0.0013097136 0
10.027808 0.00046224786 0
10.027812 0.0011946252 0
10.027811 0.0011764687 0
10.027811 0.0011725261 0
10.027811 0.0011569098 0
10.027811 0.0011745404 0