# vtk DataFile Version 4.0
hesp visualization file
ASCII
DATASET UNSTRUCTURED_GRID
POINTS 1250 double
29.213349 2.6140274 4
29.501557 1.634978 4
31.614216 3.4120111 4
30.261063 6.175799 4
30.872353 5.1190029 4
31.375319 6.890357 4
31.423553 8.0191956 4
31.426821 9.1373649 4
31.147599 10.317201 4
31.288189 11.377529 4
31.58874 12.041087 4
30.097481 13.840277 4
30.316326 15.237178 4
30.65134 15.175938 4
30.939628 17.85918 4
31.66056 16.645232 4
30.251309 19.033417 4
30.301315 20.270195 4
31.011309 21.747536 4
30.176393 22.693805 4
30.926456 22.851548 4
30.494222 24.817588 4
30.959481 25.136236 4
30.489726 26.788429 4
29.435465 27.6338 4
33.605016 -1.770072 4
30.358614 3.4657662 4
30.385917 1.5114997 4
30.342433 4.3134062 4
29.498678 4.3473591 4
29.224186 5.3814095 4
29.247716 6.4780424 4
29.243607 7.6096949 4
29.213431 8.7552501 4
29.180428 9.93223 4
30.527295 12.189155 4
30.268643 12.041946 4
29.798204 13.877117 4
28.914344 14.826415 4
30.80886 16.402699 4
29.96018 19.277832 4
29.358007 18.493876 4
29.389067 19.605342 4
30.398749 21.580792 4
31.306829 22.194041 4
30.720164 24.024929 4
31.316555 24.530485 4
30.011097 25.827276 4
28.921915 27.903172 4
32.113991 28.955844 4
29.000325 2.4627754 4
30.806333 -0.39851983 4
31.660181 3.0615837 4
32.337664 3.7818152 4
31.321534 3.7653212 4
31.942804 5.1481699 4
31.332667 6.0106622 4
31.415249 7.326506 4
31.362315 8.39494 4
31.398848 9.6065727 4
31.325285 10.505912 4
31.431927 11.72657 4
31.349174 12.705283 4
31.354984 13.810615 4
31.474209 14.885832 4
31.544004 15.755828 4
32.28695 17.709601 4
32.148233 17.959989 4
32.095288 18.871729 4
32.014113 21.279765 4
31.303007 21.737596 4
31.30265 22.859914 4
31.284192 24.021085 4
31.373768 26.120395 4
32.749028 27.423692 4
34.121956 -3.1346154 4
31.379979 2.3224347 4
30.888901 5.4371193 4
30.775223 4.5075829 4
30.603519 6.0495009 4
30.312331 7.3494858 4
30.384629 8.347398 4
30.587037 9.4753798 4
30.289849 10.827134 4
31.056899 11.780931 4
30.768721 13.244618 4
31.36826 14.545965 4
31.339073 15.556745 4
30.945989 17.175733 4
30.014251 16.118294 4
31.25087 16.687811 4
31.3949 18.353523 4
31.625826 19.754136 4
31.604223 20.014373 4
31.663531 21.152769 4
31.697001 22.292721 4
31.899281 23.528583 4
31.838519 24.58933 4
30.163005 26.816829 4
32.142113 31.432487 4
32.201506 0.87899324 4
33.496567 0.9279953 4
33.912106 2.4402799 4
33.647769 4.1550126 4
32.896582 5.2073561 4
33.820036 6.207967 4
33.821993 7.331016 4
33.819681 8.4529305 4
33.820673 9.5756149 4
33.821994 10.698876 4
33.825308 11.822346 4
33.796058 12.942831 4
33.799271 14.064612 4
33.786159 15.189802 4
33.786848 16.312029 4
33.31782 17.233505 4
33.315212 18.359662 4
33.297448 19.407883 4
33.29597 20.528042 4
33.857464 21.931362 4
33.857162 23.053997 4
33.833103 24.073436 4
33.92516 24.378611 4
33.277839 26.394117 4
32.227147 26.96412 4
31.298751 0.53853487 4
32.287797 3.0565452 4
34.081561 5.3583834 4
35.231326 5.5469275 4
35.235218 6.6718587 4
35.23473 7.7945274 4
35.234974 8.9168871 4
35.234681 10.039472 4
35.234798 11.161885 4
35.234797 12.284347 4
35.23528 13.406608 4
35.23169 14.530737 4
35.232016 15.653023 4
35.232641 16.773116 4
35.232537 17.895745 4
35.260325 19.02212 4
35.260327 20.144595 4
35.260559 21.267692 4
35.260563 22.390155 4
35.254264 23.503246 4
35.254257 24.625713 4
35.067083 25.534629 4
35.251332 26.869834 4
33.864368 27.954572 4
31.265307 28.380742 4
33.166253 3.1328005 4
32.645848 0.55942213 4
35.532804 4.6484623 4
32.378589 4.3832397 4
32.377341 5.5037693 4
32.377037 6.6271531 4
32.377142 7.7492863 4
32.377014 8.8721441 4
32.377067 9.9944592 4
32.377066 11.117031 4
32.377266 12.238757 4
32.375798 13.36577 4
32.37592 14.487836 4
32.375342 15.612043 4
32.37543 16.733977 4
32.571093 18.306314 4
32.566188 19.423444 4
32.629272 20.604955 4
32.630777 21.728624 4
32.386804 22.297784 4
32.386741 23.420315 4
32.386939 24.543105 4
32.919718 25.331369 4
33.277337 25.479541 4
33.019014 27.503359 4
36.759373 -0.41290027 4
33.954459 3.5844208 4
33.634427 3.5936384 4
34.744721 5.0725929 4
33.518061 5.9008532 4
33.518344 7.0208733 4
33.518033 8.1461932 4
33.518168 9.2673939 4
33.518559 10.386687 4
33.519089 11.504964 4
33.516772 12.656063 4
33.516876 13.776128 4
33.516758 14.906391 4
33.516772 16.028551 4
33.599559 17.132758 4
33.611295 18.271157 4
33.541846 19.425559 4
33.53854 20.548358 4
33.51779 21.657325 4
33.51789 22.780251 4
33.517877 23.902573 4
33.615737 25.129258 4
34.201579 26.137591 4
33.539092 27.381266 4
36.233292 29.716583 4
33.841787 1.1315656 4
37.102315 1.4278305 4
35.251843 2.1940486 4
34.939368 3.5097022 4
34.93784 4.6323959 4
34.937494 5.7558629 4
34.937518 6.8783155 4
34.937511 8.0007825 4
34.937516 9.1232406 4
34.937512 10.245705 4
34.937513 11.368167 4
34.937508 12.490635 4
34.937554 13.613047 4
34.937495 14.735557 4
34.9375 15.858025 4
34.963089 16.947677 4
34.962967 18.07027 4
34.9642 19.19063 4
34.964201 20.313092 4
34.964169 21.435596 4
34.964168 22.558061 4
34.964415 23.680206 4
34.964398 24.802751 4
35.375363 25.912342 4
35.413041 27.375954 4
34.824548 1.1243278 4
34.758041 2.2061962 4
36.717691 4.2659824 4
36.98024 5.2095965 4
36.983216 6.3294797 4
36.983216 7.4519421 4
36.983216 8.5744041 4
36.983216 9.6968662 4
36.983216 10.819328 4
36.983216 11.94179 4
36.983216 13.064252 4
36.983218 14.186713 4
36.983204 15.309187 4
36.98322 16.431636 4
36.983224 17.55409 4
36.953346 18.702381 4
36.953346 19.82484 4
36.953346 20.947302 4
36.953346 22.069764 4
36.953351 23.192223 4
36.953351 24.314685 4
36.953353 25.437145 4
36.953276 26.55965 4
36.708717 27.841945 4
34.823995 28.059018 4
35.94853 1.130747 4
35.946629 2.243937 4
35.944684 3.3714767 4
35.941531 4.5019967 4
35.941317 5.6254896 4
35.941317 6.7479584 4
35.941317 7.8704205 4
35.941317 8.9928826 4
35.941317 10.115345 4
35.941317 11.237807 4
35.941317 12.360269 4
35.941317 13.482731 4
35.941317 14.605193 4
35.941317 15.727655 4
35.941315 16.850117 4
35.941495 17.971885 4
35.941508 19.09429 4
35.941508 20.216752 4
35.941508 21.339214 4
35.941508 22.461676 4
35.941508 23.584138 4
35.941508 24.706601 4
35.94146 25.829068 4
35.944831 26.942594 4
35.947511 28.05818 4
37.292445 0.86356011 4
37.069525 2.2449027 4
37.06953 3.3673964 4
37.069354 4.4898371 4
37.069344 5.612149 4
37.069346 6.7346123 4
37.069346 7.8570744 4
37.069346 8.9795364 4
37.069346 10.101998 4
37.069346 11.224461 4
37.069346 12.346923 4
37.069346 13.469385 4
37.069346 14.591847 4
37.069346 15.714309 4
37.069346 16.836771 4
37.069358 17.959217 4
37.069335 19.081671 4
37.069335 20.204133 4
37.069335 21.326595 4
37.069335 22.449057 4
37.069335 23.571519 4
37.069335 24.693981 4
37.069335 25.816443 4
37.069372 26.938854 4
37.069419 28.05967 4
38.192004 1.1242722 4
38.192006 2.2449331 4
38.192007 3.3673862 4
38.192006 4.4898483 4
38.192006 5.6123102 4
38.192006 6.7347723 4
38.192006 7.8572343 4
38.192006 8.9796964 4
38.192006 10.102158 4
38.192006 11.22462 4
38.192006 12.347083 4
38.192006 13.469545 4
38.192006 14.592007 4
38.192006 15.714469 4
38.192006 16.836931 4
38.192006 17.959393 4
38.192006 19.081855 4
38.192006 20.204317 4
38.192006 21.326779 4
38.192006 22.449241 4
38.192006 23.571703 4
38.192006 24.694165 4
38.192006 25.816627 4
38.192006 26.93908 4
38.192007 28.059741 4
39.314469 1.1242721 4
39.314469 2.2449334 4
39.314469 3.3673861 4
39.314469 4.4898482 4
39.314469 5.6123102 4
39.314469 6.7347723 4
39.314469 7.8572343 4
39.314469 8.9796964 4
39.314469 10.102158 4
39.314469 11.22462 4
39.314469 12.347083 4
39.314469 13.469545 4
39.314469 14.592007 4
39.314469 15.714469 4
39.314469 16.836931 4
39.314469 17.959393 4
39.314469 19.081855 4
39.314469 20.204317 4
39.314469 21.326779 4
39.314469 22.449241 4
39.314469 23.571703 4
39.314469 24.694165 4
39.314469 25.816627 4
39.314469 26.93908 4
39.314469 28.059741 4
40.436931 1.1242721 4
40.436931 2.2449334 4
40.436931 3.3673861 4
40.436931 4.4898482 4
40.436931 5.6123102 4
40.436931 6.7347723 4
40.436931 7.8572343 4
40.436931 8.9796964 4
40.436931 10.102158 4
40.436931 11.22462 4
40.436931 12.347083 4
40.436931 13.469545 4
40.436931 14.592007 4
40.436931 15.714469 4
40.436931 16.836931 4
40.436931 17.959393 4
40.436931 19.081855 4
40.436931 20.204317 4
40.436931 21.326779 4
40.436931 22.449241 4
40.436931 23.571703 4
40.436931 24.694165 4
40.436931 25.816627 4
40.436931 26.93908 4
40.436931 28.059741 4
41.559393 1.1242721 4
41.559393 2.2449334 4
41.559393 3.3673861 4
41.559393 4.4898482 4
41.559393 5.6123102 4
41.559393 6.7347723 4
41.559393 7.8572343 4
41.559393 8.9796964 4
41.559393 10.102158 4
41.559393 11.22462 4
41.559393 12.347083 4
41.559393 13.469545 4
41.559393 14.592007 4
41.559393 15.714469 4
41.559393 16.836931 4
41.559393 17.959393 4
41.559393 19.081855 4
41.559393 20.204317 4
41.559393 21.326779 4
41.559393 22.449241 4
41.559393 23.571703 4
41.559393 24.694165 4
41.559393 25.816627 4
41.559393 26.93908 4
41.559393 28.059741 4
42.681855 1.1242721 4
42.681855 2.2449334 4
42.681855 3.3673861 4
42.681855 4.4898482 4
42.681855 5.6123102 4
42.681855 6.7347723 4
42.681855 7.8572343 4
42.681855 8.9796964 4
42.681855 10.102158 4
42.681855 11.22462 4
42.681855 12.347083 4
42.681855 13.469545 4
42.681855 14.592007 4
42.681855 15.714469 4
42.681855 16.836931 4
42.681856 17.959393 4
42.681855 19.081855 4
42.681855 20.204317 4
42.681855 21.326779 4
42.681855 22.449241 4
42.681855 23.571703 4
42.681855 24.694165 4
42.681855 25.816627 4
42.681855 26.93908 4
42.681855 28.059741 4
43.804317 1.1242721 4
43.804317 2.2449334 4
43.804317 3.3673861 4
43.804317 4.4898482 4
43.804317 5.6123102 4
43.804317 6.7347723 4
43.804318 7.8572343 4
43.804318 8.9796964 4
43.804318 10.102158 4
43.804318 11.22462 4
43.804318 12.347083 4
43.804318 13.469545 4
43.804317 14.592007 4
43.804317 15.714469 4
43.804317 16.836931 4
43.804318 17.959393 4
43.804318 19.081855 4
43.804318 20.204317 4
43.804318 21.326779 4
43.804318 22.449241 4
43.804318 23.571703 4
43.804318 24.694165 4
43.804318 25.816627 4
43.804318 26.93908 4
43.804318 28.059741 4
44.926782 1.1242721 4
44.92678 2.2449336 4
44.92678 3.3673862 4
[...]
POINT_DATA 1250
SCALARS m double
LOOKUP_TABLE default
1
1
1
1
1
1
1
1
1
1
1
1
1
1
1
1
1
1
1
1
1
1
1
1
1
1
1
1
1
1
1
1
1
1
1
1
1
1
1
1
1
1
1
1
1
1
1
1
1
1
1
1
1
1
1
1
1
1
1
1
1
1
1
1
1
1
1
1
1
1
1
1
1
1
1
1
1
1
1
1
1
1
1
1
1
1
1
1
1
1
1
1
1
1
1
1
1
1
1
1
1
1
1
1
1
1
1
1
1
1
1
1
1
1
1
1
1
1
1
1
1
1
1
1
1
1
1
1
1
1
1
1
1
1
1
1
1
1
1
1
1
1
1
1
1
1
1
1
1
1
1
1
1
1
1
1
1
1
1
1
1
1
1
1
1
1
1
1
1
1
1
1
1
1
1
1
1
1
1
1
1
1
1
1
1
1
1
1
1
1
1
1
1
1
1
1
1
1
1
1
1
1
1
1
1
1
1
1
1
1
1
1
1
1
1
1
1
1
1
1
1
1
1
1
1
1
1
1
1
1
1
1
1
1
1
1
1
1
1
1
1
1
1
1
1
1
1
1
1
1
1
1
1
1
1
1
1
1
1
1
1
1
1
1
1
1
1
1
1
1
1
1
1
1
1
1
1
1
1
1
1
1
1
1
1
1
1
1
1
1
1
1
1
1
1
1
1
1
1
1
1
1
1
1
1
1
1
1
1
1
1
1
1
1
1
1
1
1
1
1
1
1
1
1
1
1
1
1
1
1
1
1
1
1
1
1
1
1
1
1
1
1
1
1
1
1
1
1
1
1
1
1
1
1
1
1
1
1
1
1
1
1
1
1
1
1
1
1
1
1
1
1
1
1
1
1
1
1
1
1
1
1
1
1
1
1
1
1
1
1
1
1
1
1
1
1
1
1
1
1
1
1
1
1
1
1
1
1
1
1
1
1
1
1
1
1
1
1
1
1
1
1
1
1
1
1
1
1
1
1
1
1
1
1
1
1
1
1
1
1
1
1
1
1
1
1
1
1
1
1
1
1
1
1
1
1
1
1
1
1
1
1
1
1
1
1
1
1
1
1
1
1
1
1
1
1
1
1
1
1
1
1
1
1
1
1
1
1
1
1
1
1
1
1
1
1
1
1
1
1
1
1
1
1
1
1
1
1
1
1
1
1
1
1
1
1
1
1
1
1
1
1
1
1
1
1
1
1
1
1
1
1
1
1
1
1
1
1
1
1
1
1
1
1
1
1
1
1
1
1
1
1
1
1
1
1
1
1
1
1
1
1
1
1
1
1
1
1
1
1
1
1
1
1
1
1
1
1
1
1
1
1
1
1
1
1
1
1
1
1
1
1
1
1
1
1
1
1
1
1
1
1
1
1
1
1
1
1
1
1
1
1
1
1
1
1
1
1
1
1
1
1
1
1
1
1
1
1
1
1
1
1
1
1
1
1
1
1
1
1
1
1
1
1
1
1
1
1
1
1
1
1
1
1
1
1
1
1
1
1
1
1
1
1
1
1
1
1
1
1
1
1
1
1
1
1
1
1
1
1
1
1
1
1
1
1
1
1
1
1
1
1
1
1
1
1
1
1
1
1
1
1
1
1
1
1
1
1
1
1
1
1
1
1
1
1
1
1
1
1
1
1
1
1
1
1
1
1
1
1
1
1
1
1
1
1
1
1
1
1
1
1
1
1
1
1
1
1
1
1
1
1
1
1
1
1
1
1
1
1
1
1
1
1
1
1
1
1
1
1
1
1
1
1
1
1
1
1
1
1
1
1
1
1
1
1
1
1
1
1
1
1
1
1
1
1
1
1
1
1
1
1
1
1
1
1
1
1
1
1
1
1
1
1
1
1
1
1
1
1
1
1
1
1
1
1
1
1
1
1
1
1
1
1
1
1
1
1
1
1
1
1
1
1
1
1
1
1
1
1
1
1
1
1
1
1
1
1
1
1
1
1
1
1
1
1
1
1
1
1
1
1
1
1
1
1
1
1
1
1
1
1
1
1
1
1
1
1
1
1
1
1
1
1
1
1
1
1
1
1
1
1
1
1
1
1
1
1
1
1
1
1
1
1
1
1
1
1
1
1
1
1
1
1
1
1
1
1
1
1
1
1
1
1
1
1
1
1
1
1
1
1
1
1
1
1
1
1
1
1
1
1
1
1
1
1
1
1
1
1
1
1
1
1
1
1
1
1
1
1
1
1
1
1
1
1
1
1
1
1
1
1
1
1
1
1
1
1
1
1
1
1
1
1
1
1
1
1
1
1
1
1
1
1
1
1
1
1
1
1
1
1
1
1
1
1
1
1
1
1
1
1
1
1
1
1
1
1
1
1
1
1
1
1
1
1
1
1
1
1
1
1
1
1
1
1
1
1
1
1
1
1
1
1
1
1
1
1
1
1
1
1
1
1
1
1
1
1
1
1
1
1
1
1
1
1
1
1
1
1
1
1
1
1
1
1
1
1
1
1
1
1
1
1
1
1
1
1
1
1
1
1
1
1
1
1
1
1
1
1
1
1
1
1
1
1
1
1
1
1
1
1
1
1
1
1
1
1
1
1
1
1
1
1
1
1
1
1
1
1
1
1
1
1
1
1
1
1
1
1
1
1
1
1
1
1
1
1
1
1
1
1
1
1
1
1
1
1
1
1
1
1
1
1
1
1
1
1
1
1
1
1
1
1
1
1
1
1
1
1
1
1
1
1
1
1
1
1
1
1
1
1
1
1
1
1
1
1
1
1
1
1
1
1
1
1
1
1
1
1
1
1
1
1
1
1
1
1
1
1
1
1
1
1
1
1
1
1
1
1
1
1
1
1
1
1
1
1
1
1
VECTORS v double
0.39073048 -8.4038687 0
6.937961 -6.0321338 0
7.8129871 5.5481491 0
-3.8236966 14.996577 0
2.2959869 -10.256754 0
4.5626637 -14.118201 0
9.1848718 -12.661498 0
6.5620338 -13.266036 0
6.8629397 -0.34598518 0
-4.1058909 -11.301061 0
9.8827398 -0.58272971 0
-8.4221582 9.6515753 0
-3.8292375 3.448026 0
6.9505792 -4.3625289 0
1.9202511 8.0975008 0
0.77005413 -12.722171 0
-9.4627569 3.418154 0
-7.8674148 12.037399 0
-1.478272 8.3999692 0
-6.9716718 10.165583 0
2.5556555 -8.9130512 0
-4.8508387 6.6631918 0
6.3662019 -6.5379757 0
-3.2891103 3.1228572 0
-6.5136488 0.66256071 0
8.841997 -9.087 0
-7.5224448 1.9026815 0
-3.03764 -13.477905 0
6.2803913 8.2390465 0
3.9493884 -4.9686844 0
-7.1535663 -9.0059334 0
-7.0065745 -9.1828966 0
-7.0449545 -9.1150488 0
-7.2074815 -8.9822217 0
-5.4198815 -5.7422573 0
-0.53883922 2.8483102 0
12.184361 -6.5647985 0
-7.7802788 2.4886156 0
-14.756866 2.1744651 0
5.0037107 -7.8589967 0
1.1472355 9.9851496 0
-1.1607129 -7.3853907 0
-3.7914899 -8.7923145 0
-0.42276775 -2.0986481 0
12.187159 -3.0694783 0
0.28103397 8.9701186 0
8.8197275 -4.949164 0
-8.4435998 3.6219396 0
1.4700672 13.70882 0
1.3123067 1.1654597 0
-13.736624 -0.40286082 0
-2.7562996 -9.369848 0
-5.8499958 1.1565452 0
5.9063077 6.0673781 0
-7.560481 -9.1066742 0
5.0961842 -3.7078061 0
-1.8794324 -6.7431422 0
0.71451343 10.721844 0
-3.850478 8.5352157 0
-1.3167307 11.80108 0
-6.9283693 -8.3945623 0
2.2450247 9.3013669 0
-7.3932451 -9.3967445 0
-7.4703507 -9.3410637 0
-3.4753665 -11.05103 0
-5.9392117 -11.357334 0
12.33898 -10.776303 0
0.37646669 1.1358739 0
4.01015 -15.885997 0
1.2624668 -0.57522322 0
-7.4561897 -9.0826997 0
-7.7005516 -9.1572391 0
-7.7723881 -8.8980994 0
-7.4021687 -2.2349278 0
-3.4266551 -2.5437583 0
3.9466671 -13.879349 0
-5.0566836 -11.217353 0
-6.5814474 5.2145249 0
-1.7468703 -1.5868931 0
-4.6025706 -3.9161984 0
-8.4255395 -1.3728039 0
-7.0533134 -3.1759494 0
-6.0428244 2.3039527 0
-8.8474107 0.092235173 0
2.8924683 -5.3466335 0
-1.943325 12.916088 0
3.1609913 8.1449345 0
-0.096047503 8.2641723 0
-0.8865237 11.579911 0
-9.2649978 -6.5430113 0
-4.6183505 -11.294551 0
-4.8903739 -4.5630247 0
-0.034621299 -14.503999 0
-2.5634105 -1.1457608 0
2.9977719 -11.101613 0
2.9965502 -10.969874 0
4.5631661 -10.050017 0
4.0934098 -10.568344 0
0.75593928 0.84430642 0
0.47115582 14.494986 0
3.2994306 -12.534074 0
-8.2909968 -7.48614 0
6.5270176 2.3492551 0
0.55340639 9.6658496 0
-13.094822 2.8635299 0
7.9924057 1.6040724 0
7.991188 1.7117425 0
7.9917827 1.5950859 0
7.9915638 1.6466311 0
7.9824217 1.7872141 0
7.9775666 1.9525484 0
7.9104685 0.73612359 0
7.927303 0.83362839 0
7.8518429 0.47613211 0
7.8555093 0.48302604 0
-10.528949 0.20567182 0
-10.704061 -0.29295783 0
-6.556561 -6.1484801 0
-5.7852509 -6.3134645 0
8.127662 0.11642959 0
8.125503 0.090688855 0
4.4555761 -14.933103 0
10.636971 -0.42484901 0
1.2453576 5.201038 0
-11.581951 -2.5047202 0
-9.8483503 -2.0945618 0
-9.6833325 -0.81907656 0
9.3295072 7.1079093 0
8.3503864 4.8836096 0
8.3897462 4.9430974 0
8.3886636 4.9423951 0
8.3892134 4.9427672 0
8.3885564 4.9423129 0
8.3888159 4.9424937 0
8.3888047 4.9425081 0
8.3900015 4.9431492 0
8.3825788 4.9378386 0
8.3831672 4.938295 0
8.7849811 4.3952424 0
8.7807431 4.4018975 0
8.6276471 4.8575918 0
8.6277834 4.8575533 0
8.6317165 4.8584807 0
8.6316047 4.8585576 0
8.5860259 4.8066065 0
8.5852555 4.8076182 0
-4.6097196 -10.122574 0
8.4796595 4.8593206 0
-7.9990707 3.6842934 0
-9.9549464 1.2028209 0
-6.56013 8.1453083 0
-7.1764379 -15.108286 0
10.094897 7.3360271 0
-9.9670834 -0.55444588 0
-9.9767241 -0.57321651 0
-9.9810589 -0.5580954 0
-9.980555 -0.55976039 0
-9.981256 -0.55772315 0
-9.9808732 -0.55843188 0
-9.9810491 -0.55689319 0
-9.9804792 -0.56144702 0
-9.9881117 -0.53821835 0
-9.9877357 -0.54008828 0
-9.9916439 -0.53133621 0
-9.9914236 -0.53601733 0
-7.6469626 5.7405513 0
-7.6905193 5.682765 0
-6.8627606 6.4666402 0
-6.8803712 6.46606 0
-9.9175751 -0.86812202 0
-9.9281707 -0.85865456 0
-9.920615 -0.85501178 0
-4.1578054 -2.7494814 0
-10.356361 -10.886419 0
8.9169588 4.4785423 0
7.9373249 -6.5510399 0
1.6771143 3.70895 0
-12.114259 -4.7922979 0
4.8344122 4.8634374 0
-9.9421682 -0.53543144 0
-9.9293278 -0.65364841 0
-9.9447624 -0.51804468 0
-9.9381381 -0.57802106 0
-9.9187428 -0.73568548 0
-9.8923287 -0.92765641 0
-10.004704 0.50844526 0
-10.002458 0.38522199 0
-10.002864 0.83046133 0
-10.002935 0.81861401 0
4.6483173 -3.8605533 0
4.9018452 -3.2100545 0
-0.21123898 1.9823359 0
-1.0528392 2.1063286 0
-9.9832327 1.1490112 0
-9.9795229 1.1794991 0
-9.9804023 1.1693666 0
-7.0615745 4.719042 0
2.8243381 1.574837 0
-9.7599932 2.5551523 0
6.2747592 8.8220306 0
-0.20651546 2.2979803 0
-1.7764313 6.9797347 0
-3.4199539 -7.4312869 0
-7.5075439 -7.347154 0
-7.483228 -7.4102298 0
-7.4793798 -7.4568454 0
-7.4764943 -7.4568601 0
-7.4773887 -7.4560051 0
-7.4769139 -7.4564658 0
-7.4774527 -7.4559576 0
-7.4772429 -7.4561546 0
-7.4773155 -7.456043 0
-7.4758601 -7.4576686 0
-7.4831678 -7.450523 0
-7.4822194 -7.451402 0
-7.6675848 -7.1826693 0
-7.6699303 -7.1796947 0
-7.4159534 -7.5329352 0
-7.4160335 -7.5328365 0
-7.4200389 -7.5277471 0
-7.4202009 -7.5274677 0
-7.386404 -7.5710764 0
-7.3856747 -7.5696297 0
7.5988643 5.6446183 0
8.7422322 -3.7061204 0
-10.000117 0.0061750925 0
-12.110255 -1.6848046 0
5.3709344 7.3035995 0
7.4277774 5.7495258 0
7.4503407 5.7281198 0
7.4503496 5.7281319 0
7.4503498 5.7281317 0
7.4503495 5.728132 0
7.4503496 5.7281319 0
7.4503495 5.728132 0
7.4503485 5.7281329 0
7.450366 5.7281164 0
7.4502612 5.7282201 0
7.4503744 5.7281081 0
7.4503638 5.728025 0
7.2243201 5.9506786 0
7.2243119 5.950603 0
7.2243118 5.9506028 0
7.2243124 5.9506024 0
7.224348 5.9505699 0
7.2243474 5.9505718 0
7.2243477 5.9505649 0
7.2231908 5.9510062 0
5.297716 7.3424638 0
-10.008003 -0.030912627 0
-9.9708026 0.10213821 0
-10.007322 -0.012332003 0
-10.03173 0.067318196 0
-10.074659 0.18124292 0
-10.068062 0.20468914 0
-10.068072 0.20492721 0
-10.068066 0.20493106 0
-10.068068 0.20493052 0
-10.068066 0.2049311 0
-10.068067 0.20493088 0
-10.068067 0.20493094 0
-10.06807 0.20492909 0
-10.06804 0.20493658 0
-10.068042 0.20493715 0
-10.068138 0.20494986 0
-10.06819 0.19465238 0
-10.06796 0.193267 0
-10.06796 0.19326347 0
-10.067965 0.19326434 0
-10.067967 0.19326691 0
-10.067878 0.19326539 0
-10.067907 0.19330341 0
-10.072126 0.19381839 0
-10.030054 0.056797338 0
-9.981525 -0.046979795 0
0.80690838 -12.74778 0
-10.000425 -0.0013956167 0
-10.000515 0.00057305912 0
-10.026792 -0.010400468 0
-10.019022 -0.033883529 0
-10.018534 -0.033426687 0
-10.018534 -0.03342677 0
-10.018534 -0.033426767 0
-10.018534 -0.033426774 0
-10.018534 -0.033426772 0
-10.018534 -0.033426776 0
-10.018534 -0.033426699 0
-10.018534 -0.033427003 0
-10.018536 -0.033428401 0
-10.018534 -0.033427361 0
-10.017981 -0.034570588 0
-10.023033 -0.038402575 0
-10.023033 -0.03840277 0
-10.023033 -0.038402761 0
-10.023033 -0.038402627 0
-10.023032 -0.038402305 0
-10.023034 -0.038401247 0
-10.023034 -0.038410839 0
-10.021445 -0.041257646 0
-10.02324 -0.019244321 0
-10.000305 0.0056384353 0
-10.000029 -1.9354155e-06 0
-10.00001 3.6268772e-06 0
-10.00004 9.0788734e-06 0
-10.000061 -6.0904866e-07 0
-10.000061 -1.3705709e-06 0
-10.000061 -1.3736979e-06 0
-10.000061 -1.3737044e-06 0
-10.000061 -1.3737092e-06 0
-10.000061 -1.3737109e-06 0
-10.000061 -1.3736975e-06 0
-10.000061 -1.3736463e-06 0
-10.000061 -1.3744041e-06 0
-10.000061 -1.3727817e-06 0
-10.000061 -1.5716418e-06 0
-10.000058 -2.9621347e-06 0
-10.000055 -1.3288979e-06 0
-10.000055 -1.2952727e-06 0
-10.000055 -1.2952493e-06 0
-10.000055 -1.2950542e-06 0
-10.000055 -1.2952558e-06 0
-10.000055 -1.2951773e-06 0
-10.000054 -2.3778867e-06 0
-10.000041 -2.7791821e-05 0
-10.000016 -0.0056710911 0
-10.000001 0.0056664168 0
-10.000001 1.8926164e-05 0
-9.9999995 -1.8941485e-07 0
-9.9999996 3.1377322e-08 0
-9.9999998 -5.2616133e-09 0
-9.9999998 -5.8862194e-09 0
-9.9999998 -5.885975e-09 0
-9.9999998 -5.8859799e-09 0
-9.9999998 -5.885975e-09 0
-9.9999998 -5.8859833e-09 0
-9.9999998 -5.8965789e-09 0
-9.9999998 -5.8963011e-09 0
-9.9999998 -5.8863872e-09 0
-9.9999998 -5.8816e-09 0
-9.9999998 -5.8849266e-09 0
-9.9999997 -3.2376894e-08 0
-9.9999996 -2.1802274e-08 0
-9.9999996 -2.1804425e-08 0
-9.9999996 -2.1796936e-08 0
-9.9999995 -2.1821854e-08 0
-9.9999995 -2.1830624e-08 0
-9.9999995 -2.158165e-08 0
-9.9999995 1.6763733e-07 0
-9.9999994 -1.9427158e-05 0
-9.9999992 -0.0056664185 0
-9.9999992 0.0056664185 0
-9.9999992 1.9392037e-05 0
-9.9999992 -1.8941369e-07 0
-9.9999992 -2.2506219e-10 0
-9.9999992 -1.1230481e-11 0
-9.9999992 1.3504944e-14 0
-9.9999992 -1.2100672e-11 0
-9.9999992 -2.0791567e-11 0
-9.9999992 -9.4596272e-13 0
-9.9999992 7.7261065e-12 0
-9.9999992 -1.7034472e-15 0
-9.9999991 -7.4004082e-12 0
-9.9999991 -7.4056939e-12 0
-9.9999991 2.2822261e-14 0
-9.9999991 3.9323756e-14 0
-9.9999991 -2.8867077e-12 0
-9.9999991 1.0261015e-12 0
-9.9999991 3.9069945e-12 0
-9.9999991 2.5569831e-11 0
-9.9999991 2.5582103e-11 0
-9.999999 -1.1836685e-12 0
-9.999999 2.2069213e-10 0
-9.999999 1.89439e-07 0
-9.999999 -1.9392044e-05 0
-9.999999 -0.0056664185 0
-9.999999 0.0056664185 0
-9.999999 1.9392013e-05 0
-9.999999 -1.8944596e-07 0
-9.999999 -2.2440618e-10 0
-9.9999989 -4.1682096e-12 0
-9.9999989 -1.6072511e-12 0
-9.9999989 9.6336924e-15 0
-9.9999988 -1.310589e-15 0
-9.9999988 -3.7508181e-16 0
-9.9999987 -1.43688e-14 0
-9.9999987 1.0580803e-11 0
-9.9999987 7.1161354e-12 0
-9.9999987 -4.5699695e-12 0
-9.9999987 -1.8196547e-11 0
-9.9999987 -3.691377e-11 0
-9.9999987 1.9566939e-11 0
-9.9999986 3.9810928e-11 0
-9.9999985 1.6901762e-12 0
-9.9999985 1.7070221e-12 0
-9.9999985 1.4166037e-11 0
-9.9999985 1.3027565e-11 0
-9.9999985 2.2118091e-10 0
-9.9999985 1.8943946e-07 0
-9.9999985 -1.939202e-05 0
-9.9999984 -0.0056664185 0
-9.9999984 0.0056664185 0
-9.9999984 1.9392021e-05 0
-9.9999984 -1.8944376e-07 0
-9.9999984 -2.1306896e-10 0
-9.9999984 1.4048611e-11 0
-9.9999983 -1.1227163e-11 0
-9.9999983 8.8702794e-13 0
-9.9999983 2.128215e-11 0
-9.9999983 8.9211541e-12 0
-9.9999983 2.3178547e-13 0
-9.9999983 4.7490687e-13 0
-9.9999983 1.1770378e-11 0
-9.9999982 1.1799866e-11 0
-9.9999981 4.9457461e-13 0
-9.999998 -3.4445773e-11 0
-9.9999979 -5.4759577e-11 0
-9.9999983 1.1919181e-10 0
-9.9999983 9.2644294e-11 0
-9.9999983 7.7739847e-11 0
-9.9999983 5.9269314e-11 0
-9.9999983 4.9696612e-11 0
-9.9999983 2.9003785e-10 0
-9.9999983 1.8953051e-07 0
-9.9999983 -1.9391905e-05 0
-9.9999982 -0.0056664184 0
-9.9999982 0.0056664185 0
-9.9999982 1.939257e-05 0
-9.9999982 -1.8935787e-07 0
-9.9999982 -1.3556822e-10 0
-9.9999982 8.7825292e-11 0
-9.9999982 8.0126924e-11 0
-9.9999981 7.2295573e-11 0
-9.9999981 7.2288172e-11 0
-9.9999981 7.8712679e-11 0
-9.9999981 7.8702028e-11 0
-9.9999981 7.8707564e-11 0
-9.9999981 8.2379308e-11 0
-9.9999982 6.5151917e-11 0
-9.9999982 9.8531431e-11 0
-9.9999982 1.3566715e-10 0
-9.9999976 -1.1122428e-09 0
-9.9999976 4.8815212e-07 0
-9.9999976 4.8738053e-07 0
-9.9999976 4.8737748e-07 0
-9.9999976 4.8736226e-07 0
-9.9999975 4.8738724e-07 0
-9.9999974 4.876114e-07 0
-9.9999974 6.7675383e-07 0
-9.9999972 -1.8904512e-05 0
-9.9999972 -0.0056659298 0
-9.9999899 0.0056664172 0
-9.9999971 1.988511e-05 0
-9.9999971 2.9808786e-07 0
-9.9999971 4.8730534e-07 0
-9.9999971 4.8774263e-07 0
-9.999997 4.8706047e-07 0
-9.999997 4.8710251e-07 0
-9.999997 4.8708227e-07 0
-9.999997 4.8708228e-07 0
-9.999997 4.8709068e-07 0
-9.999997 4.871114e-07 0
-9.999997 4.8680577e-07 0
-9.999997 4.8743107e-07 0
-9.9999969 4.8749212e-07 0
-9.999997 4.8752501e-07 0
-9.999997 4.8299997e-07 0
-9.9999964 9.7831506e-07 0
-9.9999964 9.738312e-07 0
-9.9999964 9.7383355e-07 0
-9.9999964 9.735919e-07 0
-9.9999959 1.4611142e-06 0
-9.9999958 1.4610699e-06 0
-9.9999958 1.6489167e-06 0
-9.9999953 -1.7443007e-05 0
-9.9999952 -0.0056644679 0
-9.999966 0.005666411 0
-9.9999952 2.1352784e-05 0
-9.9999952 1.7582599e-06 0
-9.9999952 1.9474622e-06 0
-9.9999952 1.9525082e-06 0
-9.9999953 1.4566301e-06 0
-9.9999953 1.46146e-06 0
-9.9999953 1.461478e-06 0
-9.9999952 1.461472e-06 0
-9.9999952 1.4614807e-06 0
-9.9999952 1.4614647e-06 0
-9.9999953 1.4554017e-06 0
-9.9999947 1.9537733e-06 0
-9.9999947 1.9496773e-06 0
-9.9999947 1.949646e-06 0
-9.9999947 1.9497246e-06 0
-9.9999946 1.9503616e-06 0
-9.9999945 1.950061e-06 0
-9.9999945 1.9500624e-06 0
-9.9999945 1.949892e-06 0
-9.9999939 2.4372918e-06 0
-9.9999938 2.4373438e-06 0
-9.9999938 2.6263526e-06 0
-9.9999937 -1.695443e-05 0
-9.9999937 -0.0056639745 0
-9.9999575 0.0056664093 0
-9.9999935 2.185532e-05 0
-9.9999935 2.2480947e-06 0
-9.9999935 2.4372839e-06 0
-9.9999935 2.437653e-06 0
-9.9999935 2.4369762e-06 0
-9.9999935 2.4371984e-06 0
-9.9999935 2.4371354e-06 0
-9.9999933 2.4372504e-06 0
-9.9999933 2.4372684e-06 0
-9.9999933 2.4371729e-06 0
-9.9999932 2.4155055e-06 0
-9.9999859 7.8134372e-06 0
-9.9999859 7.7914195e-06 0
-9.9999859 7.7912934e-06 0
-9.9999854 7.7914112e-06 0
-9.9999854 8.2784865e-06 0
-9.9999853 8.2784797e-06 0
-9.9999853 8.2774157e-06 0
-9.9999853 8.2796923e-06 0
-9.9999852 8.2798732e-06 0
-9.9999852 8.2800698e-06 0
-9.9999851 8.4661387e-06 0
-9.9999846 -1.0622308e-05 0
-9.9999845 -0.0056576369 0
-9.999853 0.0056663829 0
-9.9999845 2.8229256e-05 0
-9.9999839 8.5768161e-06 0
-9.9999838 9.2527785e-06 0
-9.9999832 9.7409658e-06 0
-9.9999832 9.7406725e-06 0
-9.9999832 9.7406982e-06 0
-9.9999833 9.7398799e-06 0
-9.9999827 1.0228448e-05 0
-9.9999827 1.0227571e-05 0
-9.9999827 1.0227554e-05 0
-9.9999826 1.0228128e-05 0
-9.9999827 1.0231211e-05 0
-9.9999827 1.0229649e-05 0
-9.9999827 1.022866e-05 0
-9.9999822 1.0717642e-05 0
-9.9999821 1.0716851e-05 0
-9.9999821 1.0716803e-05 0
-9.9999821 1.0701031e-05 0
-9.9999775 1.5113437e-05 0
-9.9999775 1.509756e-05 0
-9.999977 1.5097258e-05 0
-9.999977 1.5774452e-05 0
-9.999977 -3.8071524e-06 0
-9.9999763 -0.0056503179 0
-9.9997352 0.0056663675 0
-9.9999761 3.5560378e-05 0
-9.9999756 1.5881359e-05 0
-9.9999756 1.6559156e-05 0
-9.9999756 1.655532e-05 0
-9.9999746 1.7535316e-05 0
-9.9999745 1.7532481e-05 0
-9.9999745 1.7532708e-05 0
-9.9999745 1.7532576e-05 0
-9.9999745 1.7533479e-05 0
-9.9999739 1.7532826e-05 0
-9.9999739 1.8021256e-05 0
-9.9999739 1.8020465e-05 0
-9.999974 1.8019984e-05 0
-9.9999729 1.8991791e-05 0
-9.9999723 1.9484649e-05 0
-9.9999723 1.9481616e-05 0
-9.9999712 1.9968188e-05 0
-9.9999712 2.0455572e-05 0
-9.9999712 2.0457346e-05 0
-9.9999712 2.045594e-05 0
-9.9999711 2.0456272e-05 0
-9.9999711 2.0646692e-05 0
-9.9999711 1.0654748e-06 0
-9.9999711 -0.0056459236 0
-9.9996857 0.0056668849 0
-9.9999964 3.5135116e-05 0
-9.9999954 1.6375074e-05 0
-9.9999948 1.7050685e-05 0
-9.9999943 1.7048667e-05 0
-9.9999939 1.7532213e-05 0
-9.9999933 1.8511736e-05 0
-9.9999922 1.8999739e-05 0
-9.9999915 1.9478962e-05 0
-9.9999904 2.0461812e-05 0
-9.9999904 2.0943373e-05 0
-9.9999904 2.094335e-05 0
-9.9999899 2.0943036e-05 0
-9.9999899 2.1426403e-05 0
-9.9999893 2.1920997e-05 0
-9.9999888 2.1915827e-05 0
-9.9999883 2.2405285e-05 0
-9.9999883 2.289115e-05 0
-9.9999883 2.2891094e-05 0
-9.99998 2.2890433e-05 0
-9.9999794 2.3865106e-05 0
-9.999971 2.4349901e-05 0
-9.9999711 2.4538263e-05 0
-9.9999712 4.8980621e-06 0
-9.9999726 -0.0056425469 0
-10.004954 0.0053527929 0
-10.005618 4.5430404e-05 0
-10.005618 2.4216388e-05 0
-10.005617 2.4894027e-05 0
-10.005617 2.5380091e-05 0
-10.005617 2.5378605e-05 0
-10.005617 2.5380975e-05 0
-10.005617 2.4889175e-05 0
-10.005633 2.4399616e-05 0
-10.005633 2.4399293e-05 0
-10.005632 2.439671e-05 0
-10.005632 2.5378249e-05 0
-10.005632 2.537438e-05 0
-10.005632 2.5865119e-05 0
-10.005632 2.5864158e-05 0
-10.005632 2.5863858e-05 0
-10.005631 2.5863033e-05 0
-10.005631 2.6352875e-05 0
-10.005631 2.6352573e-05 0
-10.005631 2.6350714e-05 0
-10.005629 2.7334421e-05 0
-10.00563 2.7327273e-05 0
-10.005621 2.7997843e-05 0
-10.005621 7.3786716e-06 0
-10.005308 -0.0053250765 0
9.4889979 -4.0124229 0
-0.76267392 3.3664077 0
-7.8737373 -4.5298096 0
6.987766 -11.532742 0
0.51542989 13.993245 0
8.447884 3.0577889 0
7.0829508 -0.88333241 0
-3.626178 6.0896042 0
2.3352885 -5.3086581 0
2.291494 5.3101554 0
7.2220601 9.5970503 0
10.651728 -5.5282541 0
5.9556377 -9.3374587 0
-2.4564755 -8.6970253 0
4.9312908 0.39046668 0
-3.5015419 13.692659 0
-1.8163293 2.9115636 0
-11.197372 1.957726 0
-2.4073641 8.7815487 0
-8.3682086 6.3626116 0
-11.834224 -2.9932963 0
2.4660852 9.8803933 0
-8.7658598 11.917805 0
-7.1161436 7.3012878 0
-8.2845127 3.7582908 0
9.008008 -3.4832559 0
-3.5152968 6.6313754 0
-5.3353465 -2.5126232 0
-3.6745108 -1.7803382 0
1.6887979 11.695119 0
-1.8888711 7.6338482 0
3.1930305 5.5596859 0
1.2845046 -2.57371 0
3.4371337 12.94493 0
-8.212991 -7.3324041 0
15.441211 -10.002587 0
1.9776249 -1.2149799 0
-8.1444032 5.6721387 0
2.5226872 -3.7065814 0
-6.151449 10.204063 0
-6.7438713 13.118819 0
2.7510597 0.50851001 0
12.709984 -2.0968766 0
-5.1515565 2.3283185 0
8.5319745 4.763532 0
-2.8590869 10.140161 0
-7.7039812 -1.0555559 0
-8.5213388 5.6176885 0
-12.948483 -0.41446927 0
-0.12262143 9.3421859 0
8.0694885 -4.2625072 0
1.8084133 1.8880322 0
10.772861 4.5816027 0
-2.0774817 -3.8747324 0
-9.9694737 5.7019213 0
-8.5528844 9.4219074 0
-9.2474913 1.8512582 0
-3.7032683 12.95876 0
7.5555938 8.6345555 0
-7.7001587 2.0546974 0
7.3625435 9.2109569 0
7.7640006 6.9957947 0
1.7092022 -7.9362683 0
7.1775228 -5.048347 0
7.9273393 7.6532379 0
10.054527 -4.3378072 0
-6.315973 11.387323 0
5.412324 3.5516913 0
-2.262247 3.6769781 0
-6.9386639 6.6280872 0
-6.3166144 8.6022295 0
13.625042 -1.5156763 0