# vtk DataFile Version 4.0
hesp visualization file
ASCII
DATASET UNSTRUCTURED_GRID
POINTS 1250 double
30.522476 1.1224772 4
30.522477 2.2449242 4
30.522477 3.3673861 4
30.522477 4.4898482 4
30.522477 5.6123102 4
30.522477 6.7347723 4
30.522477 7.8572343 4
30.522477 8.9796964 4
30.522477 10.102158 4
30.522477 11.22462 4
30.522477 12.347083 4
30.522477 13.469545 4
30.522477 14.592007 4
30.522477 15.714469 4
30.522477 16.836931 4
30.522477 17.959393 4
30.522477 19.081855 4
30.522477 20.204317 4
30.522477 21.326779 4
30.522477 22.449241 4
30.522477 23.571703 4
30.522477 24.694165 4
30.522477 25.816627 4
30.522477 26.939089 4
30.522476 28.061536 4
31.644924 1.1224779 4
31.644924 2.2449242 4
31.644924 3.3673861 4
31.644924 4.4898482 4
31.644924 5.6123102 4
31.644924 6.7347723 4
31.644924 7.8572343 4
31.644924 8.9796964 4
31.644924 10.102158 4
31.644924 11.22462 4
31.644924 12.347083 4
31.644924 13.469545 4
31.644924 14.592007 4
31.644924 15.714469 4
31.644924 16.836931 4
31.644924 17.959393 4
31.644924 19.081855 4
31.644924 20.204317 4
31.644924 21.326779 4
31.644924 22.449241 4
31.644924 23.571703 4
31.644924 24.694165 4
31.644924 25.816627 4
31.644924 26.939089 4
31.644924 28.061535 4
32.767386 1.1224779 4
32.767386 2.2449242 4
32.767386 3.3673861 4
32.767386 4.4898482 4
32.767386 5.6123102 4
32.767386 6.7347723 4
32.767386 7.8572343 4
32.767386 8.9796964 4
32.767386 10.102158 4
32.767386 11.22462 4
32.767386 12.347083 4
32.767386 13.469545 4
32.767386 14.592007 4
32.767386 15.714469 4
32.767386 16.836931 4
32.767386 17.959393 4
32.767386 19.081855 4
32.767386 20.204317 4
32.767386 21.326779 4
32.767386 22.449241 4
32.767386 23.571703 4
32.767386 24.694165 4
32.767386 25.816627 4
32.767386 26.939089 4
32.767386 28.061535 4
33.889848 1.1224779 4
33.889848 2.2449242 4
33.889848 3.3673861 4
33.889848 4.4898482 4
33.889848 5.6123102 4
33.889848 6.7347723 4
33.889848 7.8572343 4
33.889848 8.9796964 4
33.889848 10.102158 4
33.889848 11.22462 4
33.889848 12.347083 4
33.889848 13.469545 4
33.889848 14.592007 4
33.889848 15.714469 4
33.889848 16.836931 4
33.889848 17.959393 4
33.889848 19.081855 4
33.889848 20.204317 4
33.889848 21.326779 4
33.889848 22.449241 4
33.889848 23.571703 4
33.889848 24.694165 4
33.889848 25.816627 4
33.889848 26.939089 4
33.889848 28.061535 4
35.01231 1.1224779 4
35.01231 2.2449242 4
35.01231 3.3673861 4
35.01231 4.4898482 4
35.01231 5.6123102 4
35.01231 6.7347723 4
35.01231 7.8572343 4
35.01231 8.9796964 4
35.01231 10.102158 4
35.01231 11.22462 4
35.01231 12.347083 4
35.01231 13.469545 4
35.01231 14.592007 4
35.01231 15.714469 4
35.01231 16.836931 4
35.01231 17.959393 4
35.01231 19.081855 4
35.01231 20.204317 4
35.01231 21.326779 4
35.01231 22.449241 4
35.01231 23.571703 4
35.01231 24.694165 4
35.01231 25.816627 4
35.01231 26.939089 4
35.01231 28.061535 4
36.134772 1.1224779 4
36.134772 2.2449242 4
36.134772 3.3673861 4
36.134772 4.4898482 4
36.134772 5.6123102 4
36.134772 6.7347723 4
36.134772 7.8572343 4
36.134772 8.9796964 4
36.134772 10.102158 4
36.134772 11.22462 4
36.134772 12.347083 4
36.134772 13.469545 4
36.134772 14.592007 4
36.134772 15.714469 4
36.134772 16.836931 4
36.134772 17.959393 4
36.134772 19.081855 4
36.134772 20.204317 4
36.134772 21.326779 4
36.134772 22.449241 4
36.134772 23.571703 4
36.134772 24.694165 4
36.134772 25.816627 4
36.134772 26.939089 4
36.134772 28.061535 4
37.257234 1.1224779 4
37.257234 2.2449242 4
37.257234 3.3673861 4
37.257234 4.4898482 4
37.257234 5.6123102 4
37.257234 6.7347723 4
37.257234 7.8572343 4
37.257234 8.9796964 4
37.257234 10.102158 4
37.257234 11.22462 4
37.257234 12.347083 4
37.257234 13.469545 4
37.257234 14.592007 4
37.257234 15.714469 4
37.257234 16.836931 4
37.257234 17.959393 4
37.257234 19.081855 4
37.257234 20.204317 4
37.257234 21.326779 4
37.257234 22.449241 4
37.257234 23.571703 4
37.257234 24.694165 4
37.257234 25.816627 4
37.257234 26.939089 4
37.257234 28.061535 4
38.379696 1.1224779 4
38.379696 2.2449242 4
38.379696 3.3673861 4
38.379696 4.4898482 4
38.379696 5.6123102 4
38.379696 6.7347723 4
38.379696 7.8572343 4
38.379696 8.9796964 4
38.379696 10.102158 4
38.379696 11.22462 4
38.379696 12.347083 4
38.379696 13.469545 4
38.379696 14.592007 4
38.379696 15.714469 4
38.379696 16.836931 4
38.379696 17.959393 4
38.379696 19.081855 4
38.379696 20.204317 4
38.379696 21.326779 4
38.379696 22.449241 4
38.379696 23.571703 4
38.379696 24.694165 4
38.379696 25.816627 4
38.379696 26.939089 4
38.379696 28.061535 4
39.502158 1.1224779 4
39.502158 2.2449242 4
39.502158 3.3673861 4
39.502158 4.4898482 4
39.502158 5.6123102 4
39.502158 6.7347723 4
39.502158 7.8572343 4
39.502158 8.9796964 4
39.502158 10.102158 4
39.502158 11.22462 4
39.502158 12.347083 4
39.502158 13.469545 4
39.502158 14.592007 4
39.502158 15.714469 4
39.502158 16.836931 4
39.502158 17.959393 4
39.502158 19.081855 4
39.502158 20.204317 4
39.502158 21.326779 4
39.502158 22.449241 4
39.502158 23.571703 4
39.502158 24.694165 4
39.502158 25.816627 4
39.502158 26.939089 4
39.502158 28.061535 4
40.62462 1.1224779 4
40.62462 2.2449242 4
40.62462 3.3673861 4
40.62462 4.4898482 4
40.62462 5.6123102 4
40.62462 6.7347723 4
40.62462 7.8572343 4
40.62462 8.9796964 4
40.62462 10.102158 4
40.62462 11.22462 4
40.62462 12.347083 4
40.62462 13.469545 4
40.62462 14.592007 4
40.62462 15.714469 4
40.62462 16.836931 4
40.62462 17.959393 4
40.62462 19.081855 4
40.62462 20.204317 4
40.62462 21.326779 4
40.62462 22.449241 4
40.62462 23.571703 4
40.62462 24.694165 4
40.62462 25.816627 4
40.62462 26.939089 4
40.62462 28.061535 4
41.747083 1.1224779 4
41.747083 2.2449242 4
41.747083 3.3673861 4
41.747083 4.4898482 4
41.747083 5.6123102 4
41.747083 6.7347723 4
41.747083 7.8572343 4
41.747083 8.9796964 4
41.747083 10.102158 4
41.747083 11.22462 4
41.747083 12.347083 4
41.747083 13.469545 4
41.747083 14.592007 4
41.747083 15.714469 4
41.747083 16.836931 4
41.747083 17.959393 4
41.747083 19.081855 4
41.747083 20.204317 4
41.747083 21.326779 4
41.747083 22.449241 4
41.747083 23.571703 4
41.747083 24.694165 4
41.747083 25.816627 4
41.747083 26.939089 4
41.747083 28.061535 4
42.869545 1.1224779 4
42.869545 2.2449242 4
42.869545 3.3673861 4
42.869545 4.4898482 4
42.869545 5.6123102 4
42.869545 6.7347723 4
42.869545 7.8572343 4
42.869545 8.9796964 4
42.869545 10.102158 4
42.869545 11.22462 4
42.869545 12.347083 4
42.869545 13.469545 4
42.869545 14.592007 4
42.869545 15.714469 4
42.869545 16.836931 4
42.869545 17.959393 4
42.869545 19.081855 4
42.869545 20.204317 4
42.869545 21.326779 4
42.869545 22.449241 4
42.869545 23.571703 4
42.869545 24.694165 4
42.869545 25.816627 4
42.869545 26.939089 4
42.869545 28.061535 4
43.992007 1.1224779 4
43.992007 2.2449242 4
43.992007 3.3673861 4
43.992007 4.4898482 4
43.992007 5.6123102 4
43.992007 6.7347723 4
43.992007 7.8572343 4
43.992007 8.9796964 4
43.992007 10.102158 4
43.992007 11.22462 4
43.992007 12.347083 4
43.992007 13.469545 4
43.992007 14.592007 4
43.992007 15.714469 4
43.992007 16.836931 4
43.992007 17.959393 4
43.992007 19.081855 4
43.992007 20.204317 4
43.992007 21.326779 4
43.992007 22.449241 4
43.992007 23.571703 4
43.992007 24.694165 4
43.992007 25.816627 4
43.992007 26.939089 4
43.992007 28.061535 4
45.114469 1.1224779 4
45.114469 2.2449242 4
45.114469 3.3673861 4
45.114469 4.4898482 4
45.114469 5.6123102 4
45.114469 6.7347723 4
45.114469 7.8572343 4
45.114469 8.9796964 4
45.114469 10.102158 4
45.114469 11.22462 4
45.114469 12.347083 4
45.114469 13.469545 4
45.114469 14.592007 4
45.114469 15.714469 4
45.114469 16.836931 4
45.114469 17.959393 4
45.114469 19.081855 4
45.114469 20.204317 4
45.114469 21.326779 4
45.114469 22.449241 4
45.114469 23.571703 4
45.114469 24.694165 4
45.114469 25.816627 4
45.114469 26.939089 4
45.114469 28.061535 4
46.236931 1.1224779 4
46.236931 2.2449242 4
46.236931 3.3673861 4
46.236931 4.4898482 4
46.236931 5.6123102 4
46.236931 6.7347723 4
46.236931 7.8572343 4
46.236931 8.9796964 4
46.236931 10.102158 4
46.236931 11.22462 4
46.236931 12.347083 4
46.236931 13.469545 4
46.236931 14.592007 4
46.236931 15.714469 4
46.236931 16.836931 4
46.236931 17.959393 4
46.236931 19.081855 4
46.236931 20.204317 4
46.236931 21.326779 4
46.236931 22.449241 4
46.236931 23.571703 4
46.236931 24.694165 4
46.236931 25.816627 4
46.236931 26.939089 4
46.236931 28.061535 4
47.359393 1.1224779 4
47.359393 2.2449242 4
47.359393 3.3673861 4
47.359393 4.4898482 4
47.359393 5.6123102 4
47.359393 6.7347723 4
47.359393 7.8572343 4
47.359393 8.9796964 4
47.359393 10.102158 4
47.359393 11.22462 4
47.359393 12.347083 4
47.359393 13.469545 4
47.359393 14.592007 4
47.359393 15.714469 4
47.359393 16.836931 4
47.359393 17.959393 4
47.359393 19.081855 4
47.359393 20.204317 4
47.359393 21.326779 4
47.359393 22.449241 4
47.359393 23.571703 4
47.359393 24.694165 4
47.359393 25.816627 4
47.359393 26.939089 4
47.359393 28.061535 4
48.481855 1.1224779 4
48.481855 2.2449242 4
48.481855 3.3673861 4
48.481855 4.4898482 4
48.481855 5.6123102 4
48.481855 6.7347723 4
48.481855 7.8572343 4
48.481855 8.9796964 4
48.481855 10.102158 4
48.481855 11.22462 4
48.481855 12.347083 4
48.481855 13.469545 4
48.481855 14.592007 4
48.481855 15.714469 4
48.481855 16.836931 4
48.481855 17.959393 4
48.481855 19.081855 4
48.481855 20.204317 4
48.481855 21.326779 4
48.481855 22.449241 4
48.481855 23.571703 4
48.481855 24.694165 4
48.481855 25.816627 4
48.481855 26.939089 4
48.481855 28.061535 4
49.604317 1.1224779 4
49.604317 2.2449242 4
49.604317 3.3673861 4
49.604317 4.4898482 4
49.604317 5.6123102 4
49.604317 6.7347723 4
49.604317 7.8572343 4
49.604317 8.9796964 4
49.604317 10.102158 4
49.604317 11.22462 4
49.604317 12.347083 4
49.604317 13.469545 4
49.604317 14.592007 4
49.604317 15.714469 4
49.604317 16.836931 4
49.604317 17.959393 4
49.604317 19.081855 4
49.604317 20.204317 4
49.604317 21.326779 4
49.604317 22.449241 4
49.604317 23.571703 4
49.604317 24.694165 4
49.604317 25.816627 4
49.604317 26.939089 4
49.604317 28.061535 4
50.726779 1.1224779 4
50.726779 2.2449242 4
50.726779 3.3673861 4
[...]
POINT_DATA 1250
SCALARS m double
LOOKUP_TABLE default
1
1
1
1
1
1
1
1
1
1
1
1
1
1
1
1
1
1
1
1
1
1
1
1
1
1
1
1
1
1
1
1
1
1
1
1
1
1
1
1
1
1
1
1
1
1
1
1
1
1
1
1
1
1
1
1
1
1
1
1
1
1
1
1
1
1
1
1
1
1
1
1
1
1
1
1
1
1
1
1
1
1
1
1
1
1
1
1
1
1
1
1
1
1
1
1
1
1
1
1
1
1
1
1
1
1
1
1
1
1
1
1
1
1
1
1
1
1
1
1
1
1
1
1
1
1
1
1
1
1
1
1
1
1
1
1
1
1
1
1
1
1
1
1
1
1
1
1
1
1
1
1
1
1
1
1
1
1
1
1
1
1
1
1
1
1
1
1
1
1
1
1
1
1
1
1
1
1
1
1
1
1
1
1
1
1
1
1
1
1
1
1
1
1
1
1
1
1
1
1
1
1
1
1
1
1
1
1
1
1
1
1
1
1
1
1
1
1
1
1
1
1
1
1
1
1
1
1
1
1
1
1
1
1
1
1
1
1
1
1
1
1
1
1
1
1
1
1
1
1
1
1
1
1
1
1
1
1
1
1
1
1
1
1
1
1
1
1
1
1
1
1
1
1
1
1
1
1
1
1
1
1
1
1
1
1
1
1
1
1
1
1
1
1
1
1
1
1
1
1
1
1
1
1
1
1
1
1
1
1
1
1
1
1
1
1
1
1
1
1
1
1
1
1
1
1
1
1
1
1
1
1
1
1
1
1
1
1
1
1
1
1
1
1
1
1
1
1
1
1
1
1
1
1
1
1
1
1
1
1
1
1
1
1
1
1
1
1
1
1
1
1
1
1
1
1
1
1
1
1
1
1
1
1
1
1
1
1
1
1
1
1
1
1
1
1
1
1
1
1
1
1
1
1
1
1
1
1
1
1
1
1
1
1
1
1
1
1
1
1
1
1
1
1
1
1
1
1
1
1
1
1
1
1
1
1
1
1
1
1
1
1
1
1
1
1
1
1
1
1
1
1
1
1
1
1
1
1
1
1
1
1
1
1
1
1
1
1
1
1
1
1
1
1
1
1
1
1
1
1
1
1
1
1
1
1
1
1
1
1
1
1
1
1
1
1
1
1
1
1
1
1
1
1
1
1
1
1
1
1
1
1
1
1
1
1
1
1
1
1
1
1
1
1
1
1
1
1
1
1
1
1
1
1
1
1
1
1
1
1
1
1
1
1
1
1
1
1
1
1
1
1
1
1
1
1
1
1
1
1
1
1
1
1
1
1
1
1
1
1
1
1
1
1
1
1
1
1
1
1
1
1
1
1
1
1
1
1
1
1
1
1
1
1
1
1
1
1
1
1
1
1
1
1
1
1
1
1
1
1
1
1
1
1
1
1
1
1
1
1
1
1
1
1
1
1
1
1
1
1
1
1
1
1
1
1
1
1
1
1
1
1
1
1
1
1
1
1
1
1
1
1
1
1
1
1
1
1
1
1
1
1
1
1
1
1
1
1
1
1
1
1
1
1
1
1
1
1
1
1
1
1
1
1
1
1
1
1
1
1
1
1
1
1
1
1
1
1
1
1
1
1
1
1
1
1
1
1
1
1
1
1
1
1
1
1
1
1
1
1
1
1
1
1
1
1
1
1
1
1
1
1
1
1
1
1
1
1
1
1
1
1
1
1
1
1
1
1
1
1
1
1
1
1
1
1
1
1
1
1
1
1
1
1
1
1
1
1
1
1
1
1
1
1
1
1
1
1
1
1
1
1
1
1
1
1
1
1
1
1
1
1
1
1
1
1
1
1
1
1
1
1
1
1
1
1
1
1
1
1
1
1
1
1
1
1
1
1
1
1
1
1
1
1
1
1
1
1
1
1
1
1
1
1
1
1
1
1
1
1
1
1
1
1
1
1
1
1
1
1
1
1
1
1
1
1
1
1
1
1
1
1
1
1
1
1
1
1
1
1
1
1
1
1
1
1
1
1
1
1
1
1
1
1
1
1
1
1
1
1
1
1
1
1
1
1
1
1
1
1
1
1
1
1
1
1
1
1
1
1
1
1
1
1
1
1
1
1
1
1
1
1
1
1
1
1
1
1
1
1
1
1
1
1
1
1
1
1
1
1
1
1
1
1
1
1
1
1
1
1
1
1
1
1
1
1
1
1
1
1
1
1
1
1
1
1
1
1
1
1
1
1
1
1
1
1
1
1
1
1
1
1
1
1
1
1
1
1
1
1
1
1
1
1
1
1
1
1
1
1
1
1
1
1
1
1
1
1
1
1
1
1
1
1
1
1
1
1
1
1
1
1
1
1
1
1
1
1
1
1
1
1
1
1
1
1
1
1
1
1
1
1
1
1
1
1
1
1
1
1
1
1
1
1
1
1
1
1
1
1
1
1
1
1
1
1
1
1
1
1
1
1
1
1
1
1
1
1
1
1
1
1
1
1
1
1
1
1
1
1
1
1
1
1
1
1
1
1
1
1
1
1
1
1
1
1
1
1
1
1
1
1
1
1
1
1
1
1
1
1
1
1
1
1
1
1
1
1
1
1
1
1
1
1
1
1
1
1
1
1
1
1
1
1
1
1
1
1
1
1
1
1
1
1
1
1
1
1
1
1
1
1
1
1
1
1
1
1
1
1
1
1
1
1
1
1
1
1
1
1
1
1
1
1
1
1
1
1
1
1
1
1
1
1
1
1
1
1
1
1
1
1
1
1
1
1
1
1
1
1
1
1
1
1
1
1
1
1
1
1
1
1
1
1
1
1
1
1
1
1
1
1
1
1
1
1
1
1
1
1
1
1
1
1
1
1
1
1
1
1
VECTORS v double
-9.9996223 0.00050932748 0
-9.9996038 3.7053706e-06 0
-9.9996038 -1.695146e-10 0
-9.9996038 7.480189e-13 0
-9.9996038 1.1584255e-12 0
-9.9996038 1.1581467e-12 0
-9.9996038 1.158149e-12 0
-9.9996038 1.1580008e-12 0
-9.9996038 1.1584988e-12 0
-9.9996038 1.1578489e-12 0
-9.9996038 1.1594053e-12 0
-9.9996038 1.1410801e-12 0
-9.9996038 1.20782e-12 0
-9.9996038 1.1456346e-12 0
-9.9996038 1.0235766e-12 0
-9.9996038 1.1819248e-12 0
-9.9996038 1.2023503e-12 0
-9.9996038 1.2028495e-12 0
-9.9996038 1.2028627e-12 0
-9.9996038 1.2031406e-12 0
-9.9996038 1.2025464e-12 0
-9.9996038 1.6148136e-12 0
-9.9996038 1.7159926e-10 0
-9.9996038 -3.7053587e-06 0
-9.9996223 -0.00050932751 0
-9.9999973 0.00052943987 0
-9.9999974 3.6372245e-06 0
-9.9999974 -1.7227865e-10 0
-9.9999974 -4.0843968e-13 0
-9.9999974 5.6443591e-15 0
-9.9999974 5.6043837e-15 0
-9.9999974 5.6062574e-15 0
-9.9999974 5.4555203e-15 0
-9.9999974 5.9625764e-15 0
-9.9999974 5.3004092e-15 0
-9.9999974 5.6017229e-15 0
-9.9999974 5.903798e-15 0
-9.9999974 5.3007431e-15 0
-9.9999974 5.5935495e-15 0
-9.9999974 4.9882399e-15 0
-9.9999974 5.644924e-15 0
-9.9999974 5.5659674e-15 0
-9.9999974 5.881999e-15 0
-9.9999974 5.8953432e-15 0
-9.9999974 6.1791334e-15 0
-9.9999974 5.5720255e-15 0
-9.9999974 4.199461e-13 0
-9.9999974 1.7228858e-10 0
-9.9999974 -3.6372245e-06 0
-9.9999973 -0.00052943987 0
-10 0.00052938996 0
-10 3.6371779e-06 0
-10 -1.7227868e-10 0
-10 -4.1408404e-13 0
-10 3.7618276e-17 0
-10 -2.2617316e-18 0
-10 -4.4052633e-19 0
-10 -1.5123071e-16 0
-10 3.5588699e-16 0
-10 -3.0628036e-16 0
-10 -5.0191022e-18 0
-10 2.9694086e-16 0
-10 -3.0429282e-16 0
-10 -1.3020581e-17 0
-10 6.0059813e-18 0
-10 3.166189e-16 0
-10 -3.1715631e-16 0
-10 -1.0953013e-18 0
-10 1.2283711e-17 0
-10 2.9599653e-16 0
-10 -3.112055e-16 0
-10 4.1405915e-13 0
-10 1.7227864e-10 0
-10 -3.6371779e-06 0
-10 -0.00052938996 0
-10 0.00052938996 0
-10 3.6371779e-06 0
-10 -1.7227865e-10 0
-10 -4.140841e-13 0
-10 3.7902638e-17 0
-10 -2.1941547e-18 0
-10 -4.6153755e-19 0
-10 -1.5143257e-16 0
-10 3.5587194e-16 0
-10 -3.0632942e-16 0
-10 -5.1697583e-18 0
-10 2.9668412e-16 0
-10 -3.0466592e-16 0
-10 -1.2727504e-17 0
-10 6.1417498e-18 0
-10 3.1675897e-16 0
-10 -3.171872e-16 0
-10 -1.0946684e-18 0
-10 1.2304517e-17 0
-10 2.9589227e-16 0
-10 -3.1139673e-16 0
-10 4.1405872e-13 0
-10 1.7227862e-10 0
-10 -3.6371779e-06 0
-10 -0.00052938996 0
-10 0.00052938996 0
-10 3.6371779e-06 0
-10 -1.7227865e-10 0
-10 -4.1408403e-13 0
-10 3.7817439e-17 0
-10 -2.2070513e-18 0
-10 -4.4970672e-19 0
-10 -1.5137517e-16 0
-10 3.5584145e-16 0
-10 -3.0630208e-16 0
-10 -5.1234793e-18 0
-10 2.9671387e-16 0
-10 -3.0451542e-16 0
-10 -1.2821197e-17 0
-10 6.0874702e-18 0
-10 3.1671426e-16 0
-10 -3.1713527e-16 0
-10 -1.0949459e-18 0
-10 1.2256671e-17 0
-10 2.9597249e-16 0
-10 -3.1136945e-16 0
-10 4.140588e-13 0
-10 1.7227862e-10 0
-10 -3.6371779e-06 0
-10 -0.00052938996 0
-10 0.00052938996 0
-10 3.6371779e-06 0
-10 -1.7227865e-10 0
-10 -4.1408409e-13 0
-10 3.7818787e-17 0
-10 -2.2519673e-18 0
-10 -4.4313081e-19 0
-10 -1.5133312e-16 0
-10 3.5583573e-16 0
-10 -3.0625944e-16 0
-10 -5.1557979e-18 0
-10 2.9669702e-16 0
-10 -3.0449759e-16 0
-10 -1.2825043e-17 0
-10 6.117644e-18 0
-10 3.1671516e-16 0
-10 -3.1714705e-16 0
-10 -1.0961533e-18 0
-10 1.2260641e-17 0
-10 2.9597532e-16 0
-10 -3.1134432e-16 0
-10 4.1405892e-13 0
-10 1.7227861e-10 0
-10 -3.6371779e-06 0
-10 -0.00052938996 0
-10 0.00052938996 0
-10 3.6371779e-06 0
-10 -1.7227865e-10 0
-10 -4.1408408e-13 0
-10 3.7825443e-17 0
-10 -2.2080325e-18 0
-10 -4.5286394e-19 0
-10 -1.5133976e-16 0
-10 3.5586674e-16 0
-10 -3.0632855e-16 0
-10 -5.1315944e-18 0
-10 2.9673443e-16 0
-10 -3.0452888e-16 0
-10 -1.2812506e-17 0
-10 6.1348109e-18 0
-10 3.1671646e-16 0
-10 -3.1714556e-16 0
-10 -1.0946684e-18 0
-10 1.225421e-17 0
-10 2.9597987e-16 0
-10 -3.1137743e-16 0
-10 4.1405891e-13 0
-10 1.7227861e-10 0
-10 -3.6371779e-06 0
-10 -0.00052938996 0
-10 0.00052938996 0
-10 3.6371779e-06 0
-10 -1.7227865e-10 0
-10 -4.1408409e-13 0
-10 3.7819372e-17 0
-10 -2.1820116e-18 0
-10 -4.5286394e-19 0
-10 -1.5136578e-16 0
-10 3.5586674e-16 0
-10 -3.0632855e-16 0
-10 -5.1055735e-18 0
-10 2.9676045e-16 0
-10 -3.045549e-16 0
-10 -1.2812506e-17 0
-10 6.0827692e-18 0
-10 3.1671646e-16 0
-10 -3.1714556e-16 0
-10 -1.0946684e-18 0
-10 1.225421e-17 0
-10 2.9597987e-16 0
-10 -3.1137753e-16 0
-10 4.1405886e-13 0
-10 1.7227861e-10 0
-10 -3.6371779e-06 0
-10 -0.00052938996 0
-10 0.00052938996 0
-10 3.6371779e-06 0
-10 -1.7227865e-10 0
-10 -4.140841e-13 0
-10 3.7814837e-17 0
-10 -2.2131228e-18 0
-10 -4.4970672e-19 0
-10 -1.5137517e-16 0
-10 3.5584145e-16 0
-10 -3.0630208e-16 0
-10 -5.1356224e-18 0
-10 2.9670173e-16 0
-10 -3.0451716e-16 0
-10 -1.2821197e-17 0
-10 6.0874702e-18 0
-10 3.1671426e-16 0
-10 -3.1713527e-16 0
-10 -1.0949459e-18 0
-10 1.2256671e-17 0
-10 2.9597249e-16 0
-10 -3.1136912e-16 0
-10 4.1405887e-13 0
-10 1.7227861e-10 0
-10 -3.6371779e-06 0
-10 -0.00052938996 0
-10 0.00052938996 0
-10 3.6371779e-06 0
-10 -1.7227865e-10 0
-10 -4.1408404e-13 0
-10 3.7845949e-17 0
-10 -2.2359094e-18 0
-10 -4.522267e-19 0
-10 -1.5133806e-16 0
-10 3.5586126e-16 0
-10 -3.062495e-16 0
-10 -5.1322209e-18 0
-10 2.9670694e-16 0
-10 -3.0449782e-16 0
-10 -1.2820795e-17 0
-10 6.0857137e-18 0
-10 3.1671434e-16 0
-10 -3.1714591e-16 0
-10 -1.0947179e-18 0
-10 1.2254729e-17 0
-10 2.9598187e-16 0
-10 -3.1135298e-16 0
-10 4.1405885e-13 0
-10 1.7227861e-10 0
-10 -3.6371779e-06 0
-10 -0.00052938996 0
-10 0.00052938996 0
-10 3.6371779e-06 0
-10 -1.7227865e-10 0
-10 -4.751617e-13 0
-10 -6.1040733e-14 0
-10 -2.34209e-18 0
-10 -3.4792563e-19 0
-10 -1.5074058e-16 0
-10 3.5575039e-16 0
-10 -3.0613789e-16 0
-10 -4.7116554e-18 0
-10 2.9732416e-16 0
-10 -3.0325947e-16 0
-10 -1.3817114e-17 0
-10 5.6879281e-18 0
-10 3.1620359e-16 0
-10 -3.1703225e-16 0
-10 -1.0957923e-18 0
-10 1.2151381e-17 0
-10 2.9647421e-16 0
-10 -3.1108158e-16 0
-10 4.1406003e-13 0
-10 1.7227861e-10 0
-10 -3.6371779e-06 0
-10 -0.00052938996 0
-10 0.00052938996 0
-10 3.6371779e-06 0
-10 -1.7227865e-10 0
-10 -4.1408372e-13 0
-9.9999999 3.6857534e-17 0
-9.9999999 -2.4168609e-18 0
-9.9999999 -3.6187783e-19 0
-9.9999999 -1.5078311e-16 0
-9.9999999 3.5576258e-16 0
-9.9999999 -3.0612205e-16 0
-9.9999999 -4.7214702e-18 0
-9.9999999 2.9726293e-16 0
-9.9999999 -3.0329595e-16 0
-9.9999999 -1.3762718e-17 0
-9.9999999 5.7421083e-18 0
-9.9999999 3.1622332e-16 0
-9.9999999 -3.1703466e-16 0
-9.9999999 -1.095845e-18 0
-9.9999999 1.2177681e-17 0
-9.9999999 2.9642379e-16 0
-9.9999999 -3.1107577e-16 0
-9.9999999 4.1405997e-13 0
-9.9999999 1.7227861e-10 0
-9.9999999 -3.6371779e-06 0
-9.9999999 -0.00052938996 0
-9.9999999 0.00052938996 0
-9.9999999 3.6371779e-06 0
-9.9999999 -1.7227865e-10 0
-9.9999999 -3.5300664e-13 0
-9.9999999 6.111621e-14 0
-9.9999999 -2.1136011e-18 0
-9.9999999 -5.1172378e-19 0
-9.9999999 -1.5174727e-16 0
-9.9999999 3.5615308e-16 0
-9.9999999 -3.0637595e-16 0
-9.9999999 -5.284386e-18 0
-9.9999999 2.965499e-16 0
-9.9999999 -3.0535308e-16 0
-9.9999999 -1.1953375e-17 0
-9.9999999 6.1762397e-18 0
-9.9999999 3.1704008e-16 0
-9.9999999 -3.172107e-16 0
-9.9999999 -1.0943688e-18 0
-9.9999999 1.2319054e-17 0
-9.9999999 2.9565606e-16 0
-9.9999999 -3.113705e-16 0
-9.9999999 4.1405829e-13 0
-9.9999999 1.7227862e-10 0
-9.9999999 -3.6371779e-06 0
-9.9999999 -0.00052938996 0
-9.9999999 0.00052938996 0
-9.9999999 3.6371779e-06 0
-9.9999999 -1.7227865e-10 0
-9.9999999 -4.1408388e-13 0
-9.9999999 3.7186043e-17 0
-9.9999999 -2.2699318e-18 0
-9.9999999 -3.926196e-19 0
-9.9999999 -1.50951e-16 0
-9.9999999 3.5591821e-16 0
-9.9999999 -3.0619917e-16 0
-9.9999999 -4.7765332e-18 0
-9.9999999 2.9722825e-16 0
-9.9999999 -3.0370112e-16 0
-9.9999999 -1.3351433e-17 0
-9.9999999 5.7468872e-18 0
-9.9999999 3.1638698e-16 0
-9.9999999 -3.1706813e-16 0
-9.9999999 -1.0955675e-18 0
-9.9999999 1.2177639e-17 0
-9.9999999 2.963096e-16 0
-9.9999999 -3.1112084e-16 0
-9.9999999 4.1405972e-13 0
-9.9999999 1.7227862e-10 0
-9.9999999 -3.6371779e-06 0
-9.9999999 -0.00052938996 0
-9.9999999 0.00052938996 0
-9.9999999 3.6371779e-06 0
-9.9999999 -1.7227865e-10 0
-9.9999999 -4.1408374e-13 0
-9.9999999 3.721818e-17 0
-9.9999999 -2.3500606e-18 0
-9.9999999 -3.9183664e-19 0
-9.9999999 -1.5097216e-16 0
-9.9999999 6.1433764e-14 0
-9.9999999 6.077196e-14 0
-9.9999999 -4.7380002e-18 0
-9.9999999 2.9732479e-16 0
-9.9999999 -3.033588e-16 0
-9.9999999 -1.3763098e-17 0
-9.9999999 5.7503371e-18 0
-9.9999999 3.1698113e-16 0
-9.9999999 -3.1626913e-16 0
-9.9999999 -1.0214383e-18 0
-9.9999999 1.2192935e-17 0
-9.9999999 2.9638964e-16 0
-9.9999999 -3.1113095e-16 0
-9.9999999 4.1405987e-13 0
-9.9999999 1.7227862e-10 0
-9.9999999 -3.6371779e-06 0
-9.9999999 -0.00052938996 0
-9.9999999 0.00052938996 0
-9.9999999 3.6371779e-06 0
-9.9999999 -1.7227865e-10 0
-9.9999999 -4.1408436e-13 0
-9.9999999 3.8238507e-17 0
-9.9999999 -2.1662609e-18 0
-9.9999999 -4.9039923e-19 0
-9.9999999 -1.5158244e-16 0
-9.9999999 3.5519811e-16 0
-10 -3.0719129e-16 0
-10 -5.2603603e-18 0
-10 2.9658776e-16 0
-10 -3.0492153e-16 0
-10 -1.2393155e-17 0
-10 -5.2774671e-15 0
-10 -6.0761115e-14 0
-10 -5.6111683e-14 0
-10 -1.0952008e-18 0
-10 1.2379487e-17 0
-10 2.955895e-16 0
-10 -3.1145535e-16 0
-10 4.1405813e-13 0
-10 1.7227861e-10 0
-10 -3.6371779e-06 0
-10 -0.00052938996 0
-10 0.00052938996 0
-10 3.6371779e-06 0
-10 -1.7227865e-10 0
-10 -4.1408427e-13 0
-10 3.8408702e-17 0
-10 -2.1283627e-18 0
-10 -5.0810391e-19 0
-10 -1.5177402e-16 0
-10 -6.0722037e-14 0
-10 -6.1384204e-14 0
-10 -5.3273494e-18 0
-10 2.9646709e-16 0
-10 -3.0386271e-16 0
-10 -1.2667728e-17 0
-10 5.7093501e-18 0
-9.9999999 3.2099978e-16 0
-9.9999999 7.3216706e-15 0
-9.9999999 7.6339886e-15 0
-9.9999999 7.6476187e-15 0
-9.9999999 2.6475675e-15 0
-9.9999999 2.0402523e-15 0
-9.9999999 4.216937e-13 0
-9.9999999 1.7228625e-10 0
-9.9999999 -3.6371779e-06 0
-9.9999999 -0.00052938996 0
-9.9999999 0.00052938996 0
-9.9999999 3.6371778e-06 0
-9.9999999 -1.7227101e-10 0
-9.9999999 -4.0644923e-13 0
-9.9999999 7.6706985e-15 0
-9.9999999 -6.4443967e-18 0
-9.9999999 -4.5137712e-19 0
-9.9999999 -1.5139768e-16 0
-9.9999999 3.5674082e-16 0
-9.9999999 -3.0540244e-16 0
-9.9999999 -5.0772157e-18 0
-9.9999999 3.0077542e-16 0
-9.9999999 -1.1440113e-13 0
-9.9999999 -5.3034319e-14 0
-9.9999999 7.4004626e-14 0
-9.9999999 -8.4708002e-13 0
-9.9999999 1.1002556e-12 0
-9.9999999 1.2280049e-12 0
-9.9999999 1.2280197e-12 0
-9.9999999 1.2283029e-12 0
-9.9999999 1.2276957e-12 0
-9.9999999 1.6420594e-12 0
-9.9999999 1.7350663e-10 0
-9.9999999 -3.6371767e-06 0
-9.9999999 -0.00052938996 0
-9.9999999 0.00052938996 0
-9.9999998 3.6371868e-06 0
-9.9999998 -1.7105067e-10 0
-9.9999998 8.1390254e-13 0
-9.9999998 2.0830908e-12 0
-9.9999998 1.2977202e-13 0
-9.9999998 7.637153e-15 0
-9.9999998 7.4836752e-15 0
-9.9999998 7.9912562e-15 0
-9.9999998 7.3293099e-15 0
-9.9999998 6.8712051e-14 0
-9.9999998 -8.4707988e-13 0
-9.9999998 1.0598581e-12 0
-9.9999998 1.2433536e-12 0
-9.9999998 1.1899726e-12 0
-9.9999998 -1.2571706e-11 0
-9.9999993 4.8706689e-07 0
-9.9999993 4.8705333e-07 0
-9.9999993 4.8705327e-07 0
-9.9999993 4.8705328e-07 0
-9.9999993 4.8705328e-07 0
-9.9999993 4.8705369e-07 0
-9.9999993 4.8722555e-07 0
-9.9999993 -3.1501246e-06 0
-9.9999993 -0.0005289029 0
-9.999992 0.00052938995 0
-9.9999993 4.1242564e-06 0
-9.9999993 4.8688107e-07 0
-9.9999993 4.8705291e-07 0
-9.9999993 4.8706699e-07 0
-9.9999998 -1.2474342e-11 0
-9.9999998 1.1899808e-12 0
-9.9999998 1.2432106e-12 0
-9.9999998 1.2437218e-12 0
-9.9999998 1.2430587e-12 0
-9.9999998 1.1900146e-12 0
-9.9999998 -1.45088e-11 0
-9.9999993 4.8706901e-07 0
-9.9999993 4.8705584e-07 0
-9.9999993 4.8705567e-07 0
-9.9999993 4.8705591e-07 0
-9.9999992 4.8705786e-07 0
-9.9999992 4.8705695e-07 0
-9.9999992 4.8705695e-07 0
-9.9999992 4.8705696e-07 0
-9.9999992 4.8705696e-07 0
-9.9999992 4.8705738e-07 0
-9.9999992 4.8722924e-07 0
-9.9999992 -3.1501209e-06 0
-9.9999992 -0.0005289029 0
-9.9999919 0.00052938994 0
-9.9999992 4.1242686e-06 0
-9.9999992 4.8688476e-07 0
-9.9999992 4.8705655e-07 0
-9.9999992 4.8705684e-07 0
-9.9999992 4.8705489e-07 0
-9.9999992 4.8705574e-07 0
-9.9999992 4.8705574e-07 0
-9.9999992 4.8705574e-07 0
-9.9999992 4.8705574e-07 0
-9.9999992 4.8705557e-07 0
-9.9999992 4.8702827e-07 0
-9.9999989 4.8708053e-07 0
-9.9999989 4.8705213e-07 0
-9.9999989 4.8705203e-07 0
-9.9999989 4.8705213e-07 0
-9.9999989 4.8705213e-07 0
-9.9999989 4.8705203e-07 0
-9.9999989 4.8705029e-07 0
-9.9999989 4.8705379e-07 0
-9.9999989 4.8705415e-07 0
-9.9999989 4.8705457e-07 0
-9.9999989 4.872265e-07 0
-9.9999989 -3.1501237e-06 0
-9.9999989 -0.0005289029 0
-9.9999915 0.00052938992 0
-9.9999988 4.1243033e-06 0
-9.9999988 4.8688211e-07 0
-9.9999988 4.8705381e-07 0
-9.9999988 4.8705423e-07 0
-9.9999988 4.8705422e-07 0
-9.9999988 4.8705422e-07 0
-9.9999988 4.8705422e-07 0
-9.9999988 4.8705422e-07 0
-9.9999988 4.8705423e-07 0
-9.9999988 4.8705423e-07 0
-9.9999988 4.8705479e-07 0
-9.9999988 4.8705872e-07 0
-9.9999988 4.8705669e-07 0
-9.9999988 4.8705669e-07 0
-9.9999988 4.8705669e-07 0
-9.9999988 4.8705669e-07 0
-9.9999988 4.8705659e-07 0
-9.9999988 4.8703208e-07 0
-9.9999973 1.9482403e-06 0
-9.9999973 1.9482158e-06 0
-9.9999972 1.9482161e-06 0
-9.9999972 1.948388e-06 0
-9.9999972 -1.6889621e-06 0
-9.9999972 -0.00052744172 0
-9.999968 0.00052938989 0
-9.9999972 5.5854977e-06 0
-9.9999972 1.9480442e-06 0
-9.9999972 1.9482157e-06 0
-9.9999972 1.9482161e-06 0
-9.9999972 1.9482161e-06 0
-9.9999972 1.9482161e-06 0
-9.9999972 1.948216e-06 0
-9.9999972 1.9482152e-06 0
-9.9999972 1.9482172e-06 0
-9.9999972 1.9482173e-06 0
-9.9999972 1.9482173e-06 0
-9.9999972 1.9482173e-06 0
-9.9999972 1.9482172e-06 0
-9.9999972 1.9482174e-06 0
-9.9999972 1.9482174e-06 0
-9.9999972 1.9482174e-06 0
-9.9999972 1.9482174e-06 0
-9.9999972 1.9482178e-06 0
-9.9999972 1.9482213e-06 0
-9.9999972 1.9482197e-06 0
-9.9999972 1.9482201e-06 0
-9.9999972 1.9483919e-06 0
-9.9999972 -1.6889581e-06 0
-9.9999972 -0.00052744172 0
-9.9999716 0.00052939032 0
-10.000001 5.5855501e-06 0
-10 2.4351046e-06 0
-10 2.4352748e-06 0
-10 2.4352755e-06 0
-10 2.4352755e-06 0
-10 2.4352755e-06 0
-10 2.4352773e-06 0
-10 2.4352601e-06 0
-9.9999998 2.9223378e-06 0
-9.9999998 2.9223249e-06 0
-9.9999999 2.9223249e-06 0
-9.9999999 2.9223248e-06 0
-9.9999999 2.9223236e-06 0
-9.9999993 3.4093804e-06 0
-9.9999993 3.4093792e-06 0
-9.9999993 3.4093792e-06 0
-9.9999993 3.4093792e-06 0
-9.9999993 3.4093792e-06 0
-9.9999993 3.4093792e-06 0
-9.9999993 3.409382e-06 0
-9.9999993 3.4093514e-06 0
-9.9999993 3.4095216e-06 0
-9.9999993 -2.2785045e-07 0
-9.9999993 -0.00052598094 0
-10.000445 0.0005001659 0
-10.000525 7.0479863e-06 0
-10.000525 3.4092584e-06 0
-10.000525 3.8965216e-06 0
-10.000525 3.8965002e-06 0
-10.000525 3.8965001e-06 0
-10.000525 3.8965002e-06 0
-10.000525 3.8965308e-06 0
-10.000525 2.9223533e-06 0
-10.000525 2.9223854e-06 0
-10.000525 2.9223848e-06 0
-10.000525 2.9223848e-06 0
-10.000525 2.9223848e-06 0
-10.000525 2.9223848e-06 0
-10.000525 2.922385e-06 0
-10.000525 2.9223849e-06 0
-10.000525 2.9223849e-06 0
-10.000525 2.9223849e-06 0
-10.000525 2.9223849e-06 0
-10.000525 2.9223851e-06 0
-10.000525 2.9224263e-06 0
-10.000526 2.4352934e-06 0
-10.000518 2.4354564e-06 0
-10.000518 -7.1601285e-07 0
-10.000488 -0.0004972436 0
9.9995943 0.00050071051 0
9.9995931 5.892494e-06 0
9.9995934 1.6213487e-06 0
9.9995934 1.6559182e-06 0
9.9995934 1.6559171e-06 0
9.9995934 1.6559171e-06 0
9.9995934 1.6559171e-06 0
9.9995934 1.6559171e-06 0
9.9995934 1.6559171e-06 0
9.9995934 1.6559171e-06 0
9.9995934 1.6559172e-06 0
9.9995934 1.655915e-06 0
9.9995934 1.655941e-06 0
9.9995934 1.6559109e-06 0
9.9995934 1.6558858e-06 0
9.9995931 1.7051005e-06 0
9.9995931 1.7050994e-06 0
9.9995931 1.7050994e-06 0
9.9995931 1.7050994e-06 0
9.9995931 1.7050994e-06 0
9.9995931 1.7050993e-06 0
9.9995931 1.7050939e-06 0
9.9995931 1.7052634e-06 0
9.9995931 -2.000259e-06 0
9.9996116 -0.00050764757 0
9.9998856 0.00052700414 0
9.9999514 1.0470349e-05 0
9.9999432 7.3195942e-06 0
9.9999432 7.319737e-06 0
9.9999432 7.3197373e-06 0
9.9999432 7.3197373e-06 0
9.9999432 7.3197373e-06 0
9.9999432 7.3197373e-06 0
9.9999432 7.3197378e-06 0
9.9999432 7.3197366e-06 0
9.9999432 7.3197341e-06 0
9.9999437 6.8326635e-06 0
9.9999354 6.8327096e-06 0
9.9999437 6.8326573e-06 0
9.9999349 6.8326903e-06 0
9.9999349 6.8326906e-06 0
9.9999349 6.8326905e-06 0
9.9999349 6.8326905e-06 0
9.9999349 6.8326905e-06 0
9.9999349 6.8326907e-06 0
9.9999349 6.8326884e-06 0
9.9999349 6.8326925e-06 0
9.9999348 6.8328604e-06 0
9.9999348 3.1954212e-06 0
9.9999352 -0.00052205912 0
9.9999283 0.00052890274 0
9.9999867 8.0209063e-06 0
9.9999867 4.3833536e-06 0
9.9999867 4.3835142e-06 0
9.9999867 4.3835147e-06 0
9.9999867 4.3835099e-06 0
9.9999867 4.3835099e-06 0
9.9999867 4.3835099e-06 0
9.9999867 4.3835185e-06 0
9.9999872 3.8964475e-06 0
9.9999872 3.8964475e-06 0
9.9999789 4.383519e-06 0
9.9999789 4.3834866e-06 0
9.9999789 4.383506e-06 0
9.9999789 4.3835284e-06 0
9.9999789 4.3835056e-06 0
9.9999789 4.3835056e-06 0
9.9999789 4.3835056e-06 0
9.9999789 4.3835056e-06 0
9.9999789 4.3835086e-06 0
9.9999795 3.8964442e-06 0
9.9999712 4.3835146e-06 0
9.9999712 4.383683e-06 0
9.9999712 7.4632535e-07 0
9.9999712 -0.00052500645 0
9.9999274 0.00052792859 0
9.9999712 8.0209192e-06 0
9.9999712 4.3833187e-06 0
9.9999712 4.3834892e-06 0
9.9999783 4.870545e-06 0
9.9999783 4.8705448e-06 0
9.9999783 4.870545e-06 0
9.9999783 4.8705448e-06 0
9.9999783 4.8705433e-06 0
9.9999783 4.8705399e-06 0