# vtk DataFile Version 4.0
hesp visualization file
ASCII
DATASET UNSTRUCTURED_GRID
POINTS 1250 double
28.416255 -8.9159491 4
28.88946 -7.6616858 4
30.705163 -10.663829 4
29.626218 1.8712985 4
35.945232 5.6312111 4
32.271824 3.762946 4
32.75733 -10.523582 4
37.263683 10.207599 4
30.521363 14.061051 4
28.998268 7.4375222 4
34.174839 11.734261 4
35.180113 11.797245 4
33.329141 9.9493949 4
30.640072 13.634373 4
28.124885 20.981001 4
36.032382 11.423053 4
29.202771 27.542556 4
28.815339 18.82319 4
31.484998 20.725053 4
30.091988 31.082968 4
30.312076 25.185887 4
30.155409 29.795881 4
35.500166 20.854033 4
30.846688 54.458618 4
31.428579 42.090587 4
45.628488 -14.124655 4
26.673041 -7.0852115 4
22.775439 -12.954327 4
30.783961 -0.62295336 4
27.804583 5.0676266 4
25.637418 3.8250126 4
23.672036 -3.0708042 4
31.411767 -10.280965 4
29.914744 -0.51080133 4
26.449351 1.9944604 4
25.284643 9.0259595 4
34.094469 6.3288311 4
32.132089 13.477736 4
30.161107 8.8561679 4
32.914256 12.436303 4
29.27889 23.330342 4
30.10486 14.57348 4
26.951459 18.256556 4
32.585696 20.768439 4
31.872008 27.286937 4
29.69577 32.009808 4
30.290746 24.396327 4
30.176292 33.36224 4
30.919675 46.48689 4
30.789622 36.130585 4
32.718904 -8.9076905 4
32.398973 -19.071488 4
30.741355 -8.9162332 4
35.389829 1.8946244 4
41.881066 -11.578373 4
36.526673 0.56573051 4
33.398242 -8.4765994 4
35.934023 10.312674 4
33.193442 7.922827 4
35.735281 7.4000875 4
31.693502 6.1159003 4
29.733709 8.3435966 4
31.630428 8.3425968 4
33.207427 5.6280785 4
33.581417 11.810474 4
29.463685 12.472537 4
30.472837 15.155473 4
37.092554 20.77869 4
31.499016 15.795356 4
29.185179 32.262715 4
28.561002 19.268281 4
37.160227 26.292954 4
29.867112 19.971734 4
33.171282 34.485303 4
32.448534 27.679004 4
39.489406 -22.010433 4
28.790882 -5.4450203 4
30.615766 10.862696 4
36.714436 -12.899739 4
28.030965 4.4182957 4
26.866494 6.5821182 4
27.590601 9.045275 4
33.652766 6.7765772 4
30.532263 9.085082 4
33.62609 9.5094814 4
29.357868 14.501104 4
31.349922 8.1432518 4
30.637815 16.401443 4
32.541306 15.603838 4
32.488911 7.5445032 4
31.409933 14.644444 4
28.971081 13.506795 4
34.579829 12.47155 4
30.553513 18.257105 4
31.134665 24.649887 4
37.724112 9.5214065 4
30.631092 24.625449 4
30.077875 28.107287 4
29.708499 30.921629 4
32.782864 51.145665 4
36.786299 -16.450341 4
25.373101 -17.380627 4
34.37599 -2.2648093 4
35.575936 5.6403274 4
21.379818 -7.8795187 4
25.625203 5.1530506 4
28.261202 4.2043159 4
28.828075 0.64134217 4
36.504562 6.0726503 4
35.536741 4.7799925 4
31.647206 4.9903544 4
32.950716 1.9973995 4
34.859759 11.920536 4
30.373267 7.3668109 4
33.189887 15.392959 4
36.893973 19.877056 4
36.766331 14.955995 4
31.40453 15.195235 4
32.643497 17.87026 4
37.020973 23.790238 4
30.714676 28.062096 4
35.010003 30.576591 4
36.388189 26.133751 4
30.963547 33.595386 4
33.943559 32.438883 4
27.257862 -12.610389 4
27.187701 -18.817981 4
37.368142 10.784932 4
32.729558 2.5132 4
31.916851 2.164006 4
34.061216 8.7000061 4
33.096501 4.868993 4
35.302523 2.9028894 4
33.807979 15.942781 4
42.823384 17.953702 4
35.059036 14.288366 4
33.02244 15.93293 4
33.328546 23.687636 4
40.373546 15.265255 4
34.997464 14.026071 4
32.47216 25.546743 4
31.450708 24.860839 4
35.835337 23.64961 4
35.292165 30.103086 4
34.346185 32.97066 4
34.115652 33.920414 4
32.354137 21.958265 4
29.941905 28.446936 4
37.053591 40.296141 4
28.822473 36.045479 4
29.954226 1.8419024 4
22.956746 -19.87085 4
33.438594 -5.5035821 4
32.963172 -6.1006836 4
31.41474 -4.2359784 4
29.659671 5.8714447 4
30.147637 5.6946851 4
36.632942 8.3224256 4
33.237415 11.388111 4
29.412764 9.7811945 4
38.540635 10.546403 4
29.70619 14.748426 4
30.91723 10.983692 4
30.94036 15.545059 4
27.451963 17.534691 4
27.259371 14.266192 4
30.505873 19.046826 4
31.685524 23.941287 4
33.837796 31.775871 4
31.439568 27.189629 4
30.996529 28.97281 4
29.266448 29.951312 4
32.960575 36.299508 4
32.48058 28.95013 4
25.571883 39.544736 4
47.527343 -9.2910641 4
34.563978 -6.3505866 4
32.869335 -12.03514 4
32.41341 2.2812013 4
35.199411 8.2774505 4
26.191578 -13.260781 4
34.1769 6.6403121 4
24.437509 8.8772271 4
34.196665 3.7495794 4
34.879105 5.0220398 4
34.1586 9.7451886 4
27.766262 14.815501 4
34.902906 23.043621 4
33.306375 10.484902 4
35.159503 15.887449 4
33.315443 19.407562 4
32.658225 17.371594 4
31.574723 25.417149 4
35.762932 22.311768 4
31.694855 22.139223 4
29.283324 17.342858 4
25.538836 37.128062 4
35.716475 34.962303 4
31.091075 29.844542 4
44.766793 41.713976 4
31.030812 5.1436117 4
34.088511 2.6529302 4
31.770929 -2.8724751 4
34.15632 -17.831293 4
34.044636 -6.310168 4
30.049009 3.6960204 4
34.895249 2.6938231 4
37.966557 8.2665186 4
34.156495 11.087761 4
34.515981 9.5497394 4
31.647832 16.890926 4
31.881744 19.90943 4
29.664139 16.343935 4
28.737364 15.833046 4
38.17059 23.805541 4
37.445788 19.585997 4
32.084711 11.902942 4
30.95258 8.2509285 4
30.182789 16.213167 4
35.553055 19.257095 4
39.979328 25.076157 4
37.397778 29.8337 4
31.152086 23.252135 4
38.353984 34.753837 4
34.459727 33.744749 4
32.717725 -7.0676888 4
22.075015 -9.9597266 4
37.441401 -8.2479518 4
33.076695 11.013348 4
30.498634 0.58756431 4
34.840046 7.3406669 4
35.568164 8.0587018 4
38.821798 7.3452913 4
34.544018 15.180415 4
39.4349 7.107523 4
30.726438 13.100625 4
28.252719 11.2384 4
30.823371 18.833931 4
35.075633 10.875587 4
34.030963 20.051611 4
32.291581 20.660707 4
34.53398 21.572655 4
34.383151 29.557834 4
33.828438 21.802191 4
32.772875 28.515158 4
33.319716 24.090232 4
28.673075 27.207751 4
33.776979 33.126105 4
36.541832 34.652211 4
23.224578 36.948619 4
25.516474 -11.475095 4
32.695172 -3.568455 4
33.831688 -1.8659162 4
28.677045 -6.1033214 4
42.304266 4.9913771 4
33.161209 0.74714575 4
39.646812 9.54303 4
35.206918 1.40361 4
35.246959 7.7996474 4
34.363389 13.299699 4
34.332612 15.921114 4
37.060833 14.335527 4
42.266024 11.910865 4
40.04408 11.4348 4
33.75118 18.494954 4
32.767076 18.129132 4
35.510783 15.538835 4
29.335691 23.076336 4
34.379103 20.074236 4
35.304354 24.920994 4
34.293325 29.196936 4
30.047233 19.442355 4
32.582128 23.656682 4
30.427155 31.416253 4
29.55889 33.788529 4
38.418732 -16.501343 4
31.506539 -5.2806495 4
27.308022 3.6300699 4
35.775255 7.0353803 4
34.820711 6.6450949 4
39.456312 4.0606918 4
34.41395 4.5300648 4
29.271476 7.4926433 4
35.976329 12.497837 4
33.672189 8.2880293 4
35.896089 13.73612 4
33.478297 13.554643 4
34.847227 17.175937 4
33.375328 14.70648 4
36.406643 21.616171 4
37.518774 22.337033 4
36.002768 16.517923 4
33.185294 22.566807 4
32.160062 25.832922 4
34.289221 24.091844 4
34.246754 26.258261 4
33.394386 25.006195 4
29.452971 33.149934 4
27.571973 42.956799 4
41.494427 41.381117 4
34.826801 -6.3198971 4
33.168966 -1.4760689 4
32.310985 1.7957292 4
28.194977 4.7364521 4
31.148259 1.7481645 4
34.398854 -3.1995475 4
36.945985 5.9091004 4
38.203482 11.742958 4
39.897455 9.2287328 4
31.96395 8.7304293 4
38.907346 6.5291977 4
32.455539 16.321227 4
32.109265 16.865258 4
30.200544 17.15486 4
32.327882 15.45975 4
53.4033 13.384023 4
33.18458 27.856915 4
33.506339 25.330739 4
36.202712 21.365645 4
44.760317 32.422137 4
36.147593 31.606459 4
32.958684 28.972129 4
37.020153 30.982827 4
32.334207 38.937732 4
34.613351 44.202469 4
34.818778 -11.756741 4
35.762002 -1.142676 4
32.160448 3.0051356 4
34.91866 2.320153 4
30.199101 3.1434006 4
37.655368 5.8392956 4
33.074881 5.9298973 4
36.085864 6.6015634 4
35.155734 7.0732897 4
30.894866 3.9945853 4
38.876139 10.249785 4
34.988959 12.615756 4
30.085068 12.331873 4
36.318305 15.992775 4
40.920041 18.431364 4
39.004433 16.608126 4
42.361956 21.593684 4
36.34487 14.497225 4
36.348508 18.125956 4
36.812954 22.241009 4
37.823428 23.967971 4
31.907498 23.11808 4
38.166034 24.321387 4
38.925942 37.863508 4
35.416153 40.638477 4
37.020154 -3.2628803 4
34.702797 -14.965386 4
37.091722 0.11044751 4
34.590794 -0.79059113 4
34.178914 0.87888161 4
34.664913 4.4481968 4
34.392463 4.1024466 4
29.277216 4.6606224 4
36.691355 16.891136 4
36.890879 7.6902468 4
34.235512 16.633237 4
36.333086 11.832664 4
39.711651 15.592132 4
35.826756 17.275869 4
34.917984 18.430679 4
30.193001 18.090373 4
33.617206 18.176711 4
38.233083 21.462605 4
37.173125 24.367593 4
34.419816 27.733231 4
33.255193 25.462212 4
34.583772 31.587399 4
37.253608 20.047217 4
33.058181 36.565678 4
37.079861 35.101264 4
31.848848 -3.3455499 4
38.597919 -2.1666445 4
31.551417 3.3088267 4
30.320344 4.1261273 4
33.796988 1.4517026 4
40.191065 6.7749083 4
37.591722 15.318922 4
37.063104 10.491583 4
36.015151 8.7365817 4
36.172696 13.844101 4
36.716342 17.273229 4
37.739905 17.210806 4
35.11551 19.663018 4
44.229581 21.790891 4
32.649205 15.281327 4
39.78652 16.724577 4
36.519505 18.908793 4
34.627961 16.510008 4
38.788473 15.611182 4
37.372937 21.194249 4
36.703035 20.708456 4
38.347728 30.714276 4
38.1801 36.945554 4
31.580538 27.493298 4
29.927379 34.144597 4
40.606634 -2.404058 4
35.162901 3.4674743 4
33.22829 -4.5123683 4
35.511959 2.2613696 4
33.855657 5.5099762 4
33.314123 3.8401349 4
41.555251 10.029209 4
35.583318 5.3504183 4
33.691608 8.0381503 4
35.177337 13.573935 4
33.968297 17.292599 4
39.362085 9.0514791 4
37.815298 11.866633 4
35.142042 20.196299 4
37.684254 18.44249 4
38.343084 15.55068 4
33.972337 15.406217 4
34.706417 22.236479 4
35.232855 18.600924 4
34.448276 29.989656 4
33.747486 26.594177 4
34.46998 28.010852 4
35.253019 25.439395 4
28.533435 37.09149 4
35.394433 32.299703 4
31.776489 -3.5789947 4
38.372064 2.0745453 4
34.736586 3.6511227 4
36.216476 2.6929535 4
36.724358 3.4401019 4
36.321967 6.9043321 4
37.246743 9.8118206 4
36.193947 10.766525 4
34.044265 9.0010744 4
37.723893 13.769624 4
35.578016 15.876876 4
37.666993 14.529615 4
35.866461 11.653226 4
35.57837 16.544205 4
32.685157 19.554923 4
37.013302 25.602085 4
34.425732 20.548905 4
34.660023 20.178956 4
36.206056 22.672153 4
39.949292 21.739014 4
37.495551 25.15069 4
36.638705 25.672309 4
34.534865 30.209581 4
37.040318 26.56626 4
36.484344 33.968294 4
34.205472 -4.7483362 4
[...]
POINT_DATA 1250
SCALARS m double
LOOKUP_TABLE default
1
1
1
1
1
1
1
1
1
1
1
1
1
1
1
1
1
1
1
1
1
1
1
1
1
1
1
1
1
1
1
1
1
1
1
1
1
1
1
1
1
1
1
1
1
1
1
1
1
1
1
1
1
1
1
1
1
1
1
1
1
1
1
1
1
1
1
1
1
1
1
1
1
1
1
1
1
1
1
1
1
1
1
1
1
1
1
1
1
1
1
1
1
1
1
1
1
1
1
1
1
1
1
1
1
1
1
1
1
1
1
1
1
1
1
1
1
1
1
1
1
1
1
1
1
1
1
1
1
1
1
1
1
1
1
1
1
1
1
1
1
1
1
1
1
1
1
1
1
1
1
1
1
1
1
1
1
1
1
1
1
1
1
1
1
1
1
1
1
1
1
1
1
1
1
1
1
1
1
1
1
1
1
1
1
1
1
1
1
1
1
1
1
1
1
1
1
1
1
1
1
1
1
1
1
1
1
1
1
1
1
1
1
1
1
1
1
1
1
1
1
1
1
1
1
1
1
1
1
1
1
1
1
1
1
1
1
1
1
1
1
1
1
1
1
1
1
1
1
1
1
1
1
1
1
1
1
1
1
1
1
1
1
1
1
1
1
1
1
1
1
1
1
1
1
1
1
1
1
1
1
1
1
1
1
1
1
1
1
1
1
1
1
1
1
1
1
1
1
1
1
1
1
1
1
1
1
1
1
1
1
1
1
1
1
1
1
1
1
1
1
1
1
1
1
1
1
1
1
1
1
1
1
1
1
1
1
1
1
1
1
1
1
1
1
1
1
1
1
1
1
1
1
1
1
1
1
1
1
1
1
1
1
1
1
1
1
1
1
1
1
1
1
1
1
1
1
1
1
1
1
1
1
1
1
1
1
1
1
1
1
1
1
1
1
1
1
1
1
1
1
1
1
1
1
1
1
1
1
1
1
1
1
1
1
1
1
1
1
1
1
1
1
1
1
1
1
1
1
1
1
1
1
1
1
1
1
1
1
1
1
1
1
1
1
1
1
1
1
1
1
1
1
1
1
1
1
1
1
1
1
1
1
1
1
1
1
1
1
1
1
1
1
1
1
1
1
1
1
1
1
1
1
1
1
1
1
1
1
1
1
1
1
1
1
1
1
1
1
1
1
1
1
1
1
1
1
1
1
1
1
1
1
1
1
1
1
1
1
1
1
1
1
1
1
1
1
1
1
1
1
1
1
1
1
1
1
1
1
1
1
1
1
1
1
1
1
1
1
1
1
1
1
1
1
1
1
1
1
1
1
1
1
1
1
1
1
1
1
1
1
1
1
1
1
1
1
1
1
1
1
1
1
1
1
1
1
1
1
1
1
1
1
1
1
1
1
1
1
1
1
1
1
1
1
1
1
1
1
1
1
1
1
1
1
1
1
1
1
1
1
1
1
1
1
1
1
1
1
1
1
1
1
1
1
1
1
1
1
1
1
1
1
1
1
1
1
1
1
1
1
1
1
1
1
1
1
1
1
1
1
1
1
1
1
1
1
1
1
1
1
1
1
1
1
1
1
1
1
1
1
1
1
1
1
1
1
1
1
1
1
1
1
1
1
1
1
1
1
1
1
1
1
1
1
1
1
1
1
1
1
1
1
1
1
1
1
1
1
1
1
1
1
1
1
1
1
1
1
1
1
1
1
1
1
1
1
1
1
1
1
1
1
1
1
1
1
1
1
1
1
1
1
1
1
1
1
1
1
1
1
1
1
1
1
1
1
1
1
1
1
1
1
1
1
1
1
1
1
1
1
1
1
1
1
1
1
1
1
1
1
1
1
1
1
1
1
1
1
1
1
1
1
1
1
1
1
1
1
1
1
1
1
1
1
1
1
1
1
1
1
1
1
1
1
1
1
1
1
1
1
1
1
1
1
1
1
1
1
1
1
1
1
1
1
1
1
1
1
1
1
1
1
1
1
1
1
1
1
1
1
1
1
1
1
1
1
1
1
1
1
1
1
1
1
1
1
1
1
1
1
1
1
1
1
1
1
1
1
1
1
1
1
1
1
1
1
1
1
1
1
1
1
1
1
1
1
1
1
1
1
1
1
1
1
1
1
1
1
1
1
1
1
1
1
1
1
1
1
1
1
1
1
1
1
1
1
1
1
1
1
1
1
1
1
1
1
1
1
1
1
1
1
1
1
1
1
1
1
1
1
1
1
1
1
1
1
1
1
1
1
1
1
1
1
1
1
1
1
1
1
1
1
1
1
1
1
1
1
1
1
1
1
1
1
1
1
1
1
1
1
1
1
1
1
1
1
1
1
1
1
1
1
1
1
1
1
1
1
1
1
1
1
1
1
1
1
1
1
1
1
1
1
1
1
1
1
1
1
1
1
1
1
1
1
1
1
1
1
1
1
1
1
1
1
1
1
1
1
1
1
1
1
1
1
1
1
1
1
1
1
1
1
1
1
1
1
1
1
1
1
1
1
1
1
1
1
1
1
1
1
1
1
1
1
1
1
1
1
1
1
1
1
1
1
1
1
1
1
1
1
1
1
1
1
1
1
1
1
1
1
1
1
1
1
1
1
1
1
1
1
1
1
1
1
1
1
1
1
1
1
1
1
1
1
1
1
1
1
1
1
1
1
1
1
1
1
1
1
1
1
1
1
1
1
1
1
1
1
1
1
1
1
1
1
1
1
1
1
1
1
1
1
1
1
1
1
1
1
1
1
1
1
1
1
1
1
1
1
1
1
1
1
1
1
1
1
1
1
1
1
1
1
1
1
1
1
1
1
1
1
1
1
1
1
1
1
1
1
1
1
1
1
1
1
1
1
1
1
1
1
1
1
1
1
1
1
1
1
1
VECTORS v double
1.6625113 -8.8863867 0
3.782119 -10.016225 0
-1.2505833 -16.33225 0
17.259242 -0.42664639 0
6.961206 -15.658253 0
-5.4268076 -0.31875373 0
-2.1349798 -23.00759 0
14.447809 -8.5820011 0
3.9830279 1.7346088 0
-2.3203908 -7.1536504 0
1.8049312 -2.2855044 0
-3.973464 -9.6275205 0
2.8834819 -6.4012365 0
-6.3736849 6.2988484 0
8.2896876 10.756993 0
0.47387097 -7.3674943 0
10.033081 6.3794664 0
3.8443296 10.372874 0
14.812851 -2.8262364 0
-1.3688053 -0.44067853 0
5.1388941 -7.8569186 0
-4.8840203 6.2921184 0
11.511898 -3.4486913 0
0.20851595 22.962113 0
1.7492502 11.115939 0
8.8399697 -9.0826405 0
-0.25041799 -9.6336559 0
-8.9488535 -14.310443 0
4.1572028 -13.145183 0
8.6332577 3.0101928 0
-5.7590521 4.385379 0
-7.7570413 -7.7945188 0
0.60722477 -30.536361 0
8.9903361 -9.3840964 0
-11.135083 -3.4475771 0
-2.2211474 7.0002776 0
-3.5509131 -5.0657523 0
-10.063932 -8.8316213 0
5.315051 -4.2091544 0
-7.4589498 1.6636036 0
-1.5950643 5.535082 0
-5.0819457 5.2901549 0
-2.1979993 0.43943258 0
-5.3002544 7.0614624 0
-6.5519075 10.385298 0
-0.21024436 1.1688043 0
1.6229039 12.373794 0
-0.001227717 13.188201 0
1.4688879 13.66397 0
2.7031784 11.982274 0
3.3105088 -9.94724 0
3.1086754 -15.900923 0
2.0226998 -19.9008 0
-7.128851 -13.921417 0
10.755174 -12.551503 0
-0.72246794 -5.9709693 0
15.963154 -14.738137 0
-1.05052 -1.0557459 0
-5.2672867 -0.0016907484 0
9.7239198 1.00621 0
1.612652 -10.611133 0
13.706227 2.3392098 0
2.0049595 -8.8080002 0
-7.5254112 3.1735159 0
6.7875009 2.4769469 0
-13.38303 -7.8199273 0
3.48902 -6.5566937 0
-0.22078773 -1.1000627 0
0.41596335 -12.255058 0
-0.73013921 3.3754286 0
7.0308763 -4.4036641 0
0.15867693 6.5806123 0
2.3904728 8.131682 0
-3.4019819 7.6254827 0
-1.091236 16.52838 0
3.9466542 -13.879275 0
-3.3458266 -4.9599789 0
-1.5515111 12.481498 0
5.1165175 -14.873533 0
6.3792591 -13.111929 0
-8.2034142 1.3360413 0
5.3070219 4.837087 0
4.3025446 -12.874604 0
13.246104 -9.2043913 0
-1.4656581 10.316187 0
13.279822 -5.3228662 0
-6.8702093 -3.9675564 0
4.6517778 6.4065216 0
-4.5676035 -4.1693055 0
12.803346 -6.3267185 0
-1.3719862 -6.8790929 0
3.0812993 -3.907641 0
6.2097176 0.24848203 0
-6.4897479 -4.1167929 0
-0.65759008 -2.457023 0
-10.324109 -2.6411386 0
4.4676683 -4.0274938 0
-5.4053224 2.9850189 0
0.11014213 3.9870862 0
0.47110466 14.494984 0
3.3724808 -12.746329 0
-5.5351156 -14.739296 0
-1.4710758 -13.530635 0
1.9644872 -3.5195448 0
-8.2376167 -8.4670163 0
-7.3774809 -8.3946887 0
-5.981493 -17.237304 0
0.67648784 -4.4027364 0
1.0635617 0.90024394 0
2.4013349 1.2810552 0
0.28141316 -14.735325 0
-2.8786068 -10.695004 0
-1.9307975 -0.32389413 0
-8.0766343 2.8923504 0
-5.3668486 -1.4199108 0
-0.59787611 9.9507153 0
2.7875742 6.1501125 0
-5.8020509 -5.3353062 0
3.6731519 15.309519 0
2.8348139 7.3050051 0
5.1288967 1.9373682 0
0.53122547 10.751606 0
3.7042864 6.4932577 0
-2.4148113 9.5914771 0
3.6405152 17.943126 0
-2.3670795 -9.0004585 0
0.063623488 -22.510144 0
-3.9939081 6.8629449 0
1.5660883 1.1551039 0
-9.2973065 3.3467562 0
-15.40419 -2.2320876 0
1.8318367 -5.0858368 0
-8.5664899 -5.2851377 0
-2.8996662 10.80459 0
13.278457 -0.78535 0
0.19879333 -3.6067004 0
-8.7278377 -1.8795229 0
2.8385068 8.8111969 0
4.9345656 -2.6240291 0
8.3873572 7.6375772 0
5.7151244 5.927462 0
1.62645 5.4038854 0
-2.9719512 -2.7212016 0
-0.9081047 11.085633 0
-6.7233 6.0561667 0
7.0229735 7.1613181 0
2.7514784 -3.8513932 0
10.424665 -2.6311929 0
2.7835724 9.3005146 0
0.53655262 13.243041 0
1.0678248 -11.350766 0
-7.1221573 -15.01762 0
23.914185 -0.83502945 0
12.640385 -6.5021061 0
1.5387123 -7.4536954 0
6.5117503 -11.02915 0
11.818426 -14.78217 0
-3.8342434 6.015437 0
-9.3198298 -2.3446659 0
8.7666547 3.0207946 0
-9.5486262 -11.868678 0
7.8634191 -19.682563 0
-0.24349977 -0.91624685 0
-2.0046367 5.1023215 0
-2.896518 -3.1140495 0
-4.4191184 -7.9928422 0
0.16989258 -4.9572337 0
0.66993877 13.710024 0
-3.6107262 12.857365 0
-9.8105586 25.052577 0
-13.220252 10.707303 0
-11.805708 10.215824 0
5.5694261 7.2844338 0
-5.9977166 0.40407802 0
-2.2852009 10.289015 0
7.9152496 -6.5258364 0
13.206553 -11.08226 0
0.10144119 -13.986573 0
-7.8594695 -7.8592204 0
1.390588 4.6348833 0
-4.6925393 -16.491959 0
3.3979474 -12.40386 0
17.066089 -1.8307482 0
-2.6700649 -0.55660695 0
-10.339681 2.6890773 0
6.5548015 -0.075203286 0
-7.3119533 5.0943706 0
10.782387 -3.7946801 0
-3.5530578 -10.326235 0
-7.5880913 7.031065 0
1.4618519 1.7756912 0
-3.7642498 -12.555991 0
3.9852545 8.6370471 0
-10.607488 9.5093252 0
15.947179 6.6366686 0
12.067598 7.7780966 0
-6.4642468 9.8352849 0
4.3121763 9.9565635 0
-6.6262699 0.25888132 0
6.2745354 8.821453 0
3.2031677 -0.862267 0
8.8318369 -2.8279158 0
-0.39653074 -10.655077 0
0.73048152 -25.593595 0
8.3684318 -21.847885 0
1.7685191 -0.86441726 0
-6.5151666 0.47804135 0
5.8108447 1.8300752 0
20.272315 -9.3242868 0
-1.2679605 -2.6819274 0
4.6072155 5.8166993 0
-1.6635841 2.3218305 0
0.23035755 3.4466922 0
-0.17011164 -7.8493725 0
-0.84122346 7.2848589 0
-4.6602091 -2.5517102 0
14.364236 -2.6348422 0
-6.4150295 8.9177407 0
-14.363586 2.0750988 0
1.4337297 -6.1288153 0
8.4646735 -2.2420554 0
-0.25708075 2.0816985 0
4.4246222 13.600794 0
-2.1813147 10.137366 0
2.5725821 12.433241 0
0.43668628 -18.923849 0
-9.9740478 -15.061016 0
12.317281 -13.873989 0
-6.4536043 0.093977794 0
7.0345442 -3.4957587 0
-2.9912474 0.047389642 0
-3.1989862 2.6068158 0
-2.3008437 -8.4975359 0
-15.587042 -3.172672 0
2.9803778 -13.524883 0
-2.5177914 -6.3206651 0
1.2051737 -0.020585426 0
-11.137059 7.6295456 0
-7.5234481 -6.7837051 0
-15.168089 7.4874363 0
-1.2600205 8.9561893 0
6.1551669 -8.899791 0
7.9291252 7.0470822 0
-6.865067 16.28213 0
-2.3903662 7.9123856 0
-4.7523626 14.507513 0
-0.20848027 13.230191 0
4.3111622 11.011449 0
3.7223632 11.908534 0
-5.8559111 10.924884 0
-1.3916379 -9.9784101 0
7.7552767 -2.6827986 0
4.2688089 -5.6887785 0
11.104529 -25.431597 0
4.9658263 0.020072492 0
-3.8478716 -12.203504 0
5.7833163 6.8399248 0
0.25867107 -2.6613407 0
5.3894551 -11.025109 0
-4.8741473 5.913726 0
6.0485851 -6.3678994 0
-3.1393563 -3.7621523 0
8.5521479 3.948585 0
12.788908 4.8425221 0
-2.1827889 -10.46652 0
-7.5790033 -1.1116323 0
1.221368 -2.5582513 0
-2.3247468 11.838411 0
-3.0578326 6.5706133 0
-0.3647672 1.3602109 0
-7.1248488 11.015286 0
2.127444 -12.291886 0
-5.1104822 0.89371233 0
4.167559 -2.6193205 0
0.67874575 1.1045336 0
0.83127993 -12.772027 0
1.0977014 -17.543185 0
-7.5083123 -2.090614 0
-0.37534166 14.881433 0
-13.579525 -6.2975741 0
14.113763 -2.3745345 0
-1.3801992 -6.5824994 0
3.7992994 -4.7482717 0
11.891009 8.4914216 0
4.8360067 -11.531583 0
-4.383396 -14.910454 0
4.0233708 -2.0934725 0
4.3231544 -9.9669183 0
11.350666 -2.1407133 0
-0.13003306 4.0733965 0
-6.8465356 -6.9685197 0
-6.3472734 -5.7780647 0
-0.44972116 -1.4634331 0
2.854951 3.6349742 0
-1.5292333 8.1378538 0
8.4446338 4.1282484 0
3.7166604 -2.4360393 0
-3.2520082 10.824257 0
-5.9479725 8.3013526 0
3.3742083 9.8830455 0
5.4248265 -7.9591979 0
-3.2858542 -10.206168 0
6.1352174 -3.7833217 0
-2.997265 2.9422386 0
-0.59862069 -11.854232 0
-0.86629169 -6.1054453 0
4.7412497 2.3252186 0
-1.8587086 2.8846989 0
4.7558978 0.4832068 0
0.32486217 2.0454187 0
2.2069836 0.89610417 0
1.0140899 8.289909 0
-3.0947013 1.0731088 0
-5.5590442 8.4275497 0
-7.7322307 -1.4762004 0
11.979384 -7.2830737 0
-13.711241 12.065205 0
-1.6912386 5.7919861 0
2.2044379 -10.364505 0
15.697056 5.9561084 0
8.029523 9.4998935 0
4.1213285 13.621521 0
10.309191 6.7976489 0
-4.5505238 9.4721715 0
4.6944537 19.014253 0
0.34317762 -14.635397 0
1.5791684 -7.8520746 0
-11.957036 -9.3237412 0
1.5985095 -7.9253017 0
-2.2394886 4.241581 0
-7.9753963 -3.1376761 0
-4.3000824 -9.6294929 0
-1.4913393 -1.6062273 0
-0.51987593 -6.0320763 0
-1.2689786 -7.303343 0
-3.4455998 6.0563123 0
-9.8748291 -2.2283938 0
8.0054159 1.4845206 0
-7.5280427 9.8088597 0
1.3924599 -8.3489207 0
12.079753 2.1067269 0
18.937872 4.7572193 0
7.8563431 -13.036103 0
-1.0757335 -1.7246418 0
4.2817322 8.57701 0
-3.3258305 -9.8815099 0
2.9727454 -7.5356852 0
21.78338 -0.68361671 0
0.92419688 11.820462 0
5.9413823 17.889679 0
-0.34981221 -16.05737 0
2.2112739 -15.761668 0
9.5102107 0.55867216 0
1.7490999 -9.6136014 0
-0.74048139 -6.9243977 0
10.594906 -5.145397 0
0.62964937 -5.8753808 0
-8.7428447 -8.9130549 0
-6.396744 5.1317798 0
-0.64249932 2.1971595 0
-3.4217905 7.3524946 0
1.7554348 4.3918589 0
-1.8600054 4.9645332 0
1.5835126 1.2466028 0
0.78126139 -2.4387339 0
-8.9810129 -3.8092258 0
-4.3475698 1.6841493 0
1.59428 9.4347902 0
-4.9346295 7.8506393 0
-7.408881 3.2628991 0
-0.73566493 -5.4022578 0
4.0850328 10.533795 0
1.6262636 2.7955163 0
-3.6116369 10.214534 0
-1.1661284 11.47763 0
-0.061177927 -14.339949 0
2.0044181 -8.7191226 0
-3.725264 0.25900149 0
-20.436392 -1.0968733 0
-3.1346719 -9.9338457 0
13.791696 -0.41014493 0
17.865379 13.509482 0
-5.9463855 -3.3555579 0
-0.58075512 8.8280918 0
3.5899125 -0.77574861 0
0.89514872 12.569804 0
-8.0081409 -1.5312855 0
1.6613542 -2.0225383 0
21.540439 4.9710338 0
6.1761087 -11.647802 0
5.1377355 2.4517556 0
-0.96046249 10.104608 0
-10.71678 -11.368701 0
9.0263218 3.381768 0
-6.4537549 6.9504373 0
-0.14475611 2.2962915 0
3.0547975 5.7780523 0
-0.28223809 12.872738 0
-3.5820993 14.312759 0
-1.3289199 3.5646564 0
8.055948 -6.6372974 0
-7.8956189 -6.963691 0
-2.3167162 -12.467238 0
-7.7234949 -4.9154261 0
-2.1363171 -0.7522169 0
-3.0087242 -15.260451 0
6.8763121 -2.1150536 0
-15.070212 7.2146218 0
-9.2244496 2.2616257 0
-4.2814294 2.4187697 0
13.539259 0.75388578 0
0.35081232 6.2780988 0
7.2013342 -5.0657729 0
-3.7819946 9.2289485 0
0.21880178 3.014315 0
-2.5349738 -2.865059 0
-11.984505 -5.4831353 0
-8.9195148 -5.8359037 0
-8.8031795 -6.825293 0
-2.361782 10.433193 0
-4.4078438 3.550921 0
-12.351293 12.162618 0
-3.2848218 4.4757473 0
-3.2878348 16.575814 0
0.94522899 13.055468 0
-4.6037829 -9.2117259 0
5.6602973 0.57020496 0
-5.389433 -5.7966958 0
-5.9103294 7.9329658 0
-10.543617 -4.2866593 0
-0.51145504 -2.8125274 0
-3.9427451 3.9924764 0
-7.2048274 -11.568885 0
-9.016717 1.186077 0
2.614982 -4.141202 0
-3.9237509 6.6425932 0
4.9580055 -3.9747621 0
0.21693914 -8.5402504 0
3.0142252 6.6956748 0
-6.2025612 8.7781197 0
12.941433 -1.2505312 0
-0.16057973 0.97740429 0
8.4111705 2.396046 0
-11.135063 5.0147422 0
4.2589436 4.1971475 0
-3.8428044 5.3564199 0
-6.1894067 9.5274604 0
2.7509662 2.9108312 0
9.590499 6.7600476 0
1.4480518 5.7852958 0
-5.7590538 -8.9722539 0
7.3712479 -17.732584 0
-1.7667489 0.041551585 0
-11.449543 -11.326892 0
4.5903246 -1.8104252 0
1.3476525 -3.3883873 0
1.4629145 -10.895583 0
9.1013557 -1.0491621 0
5.0111173 -10.338278 0
8.1315485 0.75933 0
-4.467387 3.2933984 0
11.640047 9.872197 0
6.7397768 -2.8313734 0
7.1082843 0.42106902 0
5.1356686 4.9678023 0
-6.8112322 -8.4395312 0
5.9284052 3.7476704 0
3.8014137 10.770501 0
3.3288265 2.4636488 0
-7.3474655 6.1042714 0
-6.7078864 10.643956 0
-3.9817568 7.6058171 0
-7.196101 -1.6822031 0
-1.1157861 -2.185405 0
-3.217553 5.0707911 0
3.2853042 -8.9605277 0
5.7586996 -6.1999301 0
-4.304318 -2.6869929 0
-8.6867536 -12.401474 0
-7.5136427 4.157818 0
-4.7085017 0.36687252 0
-2.4863347 -11.174957 0
-3.3699451 -3.9671494 0
1.244342 -4.392548 0
-8.8428028 1.6634121 0
4.9938693 0.58398294 0
2.2070471 7.2100936 0
-11.160143 4.8578916 0
5.5649614 -1.4974253 0
6.7110784 -4.5801018 0
1.8823529 7.841966 0
-1.1507292 -1.643131 0
-0.8884727 1.4926556 0
1.6474543 -9.6419158 0
-14.284129 8.5433929 0
-11.213803 3.5318644 0
-3.1293362 8.9629143 0
-7.1362034 -3.4343172 0
-10.933417 0.91960775 0
5.5746015 6.6028993 0
-3.5910976 -10.015788 0
1.9557992 3.5328395 0
-3.8450733 -8.371573 0
3.9507105 -1.6790397 0
-8.4407522 -13.553515 0
-16.326066 -15.794231 0
9.3286495 -8.6419466 0
13.081975 -16.882001 0
7.9368736 -9.8364409 0
4.2519285 -9.0606836 0
1.8963121 1.5307438 0
-1.7197592 -4.3325589 0
-5.1738314 -3.0784937 0
11.385894 12.055845 0
9.1952791 5.602906 0
-3.6209239 1.7705151 0
-9.4079003 -5.2113736 0
-3.6718122 -4.4767301 0
3.8620782 7.209239 0
8.0910095 6.822873 0
3.6503002 9.1187955 0
-8.981304 6.3187466 0
-5.1124524 -0.072303794 0
-3.4438473 3.0052328 0
0.095764378 14.846625 0
2.8623539 -21.708855 0
0.66560741 7.5893523 0
-0.29439439 4.0729732 0
2.8262529 -2.9843521 0
-1.8183037 -16.201623 0
-2.7621483 -3.7867964 0
-5.0750743 -4.2388905 0
-0.46902971 -6.4664789 0
8.6725968 7.0939195 0
-13.399094 -3.9997847 0
-3.0149849 1.3260174 0
-1.6777411 -1.6969873 0
5.3284395 1.8903531 0
18.701664 -5.4315151 0
-2.3293165 -1.6609682 0
-2.041535 7.2197202 0
9.1237058 -11.714099 0
2.229783 1.938101 0
17.274611 7.8965708 0
-1.1701854 7.3730556 0
-2.4759727 9.7857248 0
4.2054375 2.399703 0
-7.7889272 -4.6452559 0
-5.9748577 9.8412643 0
-8.0992203 2.1193256 0
-2.7926167 -0.074230966 0
-3.1804038 -5.0648641 0
7.0566816 -7.5061871 0
-5.9022272 -7.3481445 0
-6.5989706 2.1951589 0
-2.230174 -8.2131958 0
3.1674678 2.9857861 0
7.8564704 5.6438426 0
8.0730896 4.2135889 0
-7.538138 6.1932915 0
9.9303752 -2.4466088 0
4.8122319 4.1676647 0
3.2909374 10.000568 0
5.9333822 -4.3516605 0
5.4615256 -0.079741703 0
-1.9289524 1.5582728 0
4.8716071 8.551006 0
0.12511688 -2.6919648 0
7.7492254 4.1668202 0
6.1579663 13.284766 0
-5.6205773 -0.75184286 0
4.2804244 5.5129014 0
-0.31112937 1.4349986 0
-11.384007 12.089981 0
-7.3134505 -2.1844729 0
-10.009543 0.06921435 0
1.8564243 -0.92198824 0
-9.6704177 -1.6708724 0
8.7496151 -7.1920011 0
6.5873511 0.03258639 0
8.4412443 -11.914152 0
-4.6008712 4.6653547 0
2.2355432 4.6796542 0
-8.9227281 5.7183512 0
4.0429404 1.6926793 0
10.562039 2.6216823 0
13.280544 4.79731 0
-3.4840498 6.3925962 0
-5.867757 4.7365436 0
4.6389672 0.77958836 0
3.0181415 8.5170616 0
-3.0202658 4.8845002 0
14.086378 2.6865173 0
-2.1795387 -4.257593 0
-7.2974945 1.0926687 0
4.1944423 -0.34620865 0
-1.2760326 14.088722 0
-4.7851045 3.8898979 0
0.61691545 6.8105418 0
-9.9665258 -0.11346207 0
-13.656144 -11.972355 0
-5.5783331 -1.2411187 0
-10.969036 -1.7552084 0
5.4145527 -3.4289001 0
-5.9449975 2.0928856 0
4.1270771 -0.092215743 0
7.889189 -5.4691677 0
7.7400862 -13.779532 0
10.860783 -2.3650128 0
12.786017 4.3682855 0
0.56780381 -7.7625454 0
0.35067379 -1.5607698 0
6.1631363 -0.099745148 0
2.293549 -2.8146945 0
-12.100281 12.066248 0
-2.2138223 -3.1076653 0
-3.9682368 1.4994545 0
-5.919715 1.4228607 0
-3.2260945 9.6111966 0
4.5944906 11.904368 0
-2.6004449 -2.3455278 0
1.8452221 -2.1689544 0
-9.7255707 -0.20506229 0
-3.3374413 -8.1406172 0
-9.951801 -0.1116291 0
9.3664052 -3.8409628 0
-3.746657 0.24007626 0
4.116675 -11.363059 0
6.1562349 -10.12593 0
-0.23042523 2.4204554 0
-5.1526213 -9.6711011 0
4.7629292 -7.5992873 0
-0.17212471 9.4703555 0
-0.080043762 -3.6208794 0
3.2247588 -3.9204603 0
0.55087132 0.39134681 0
15.784971 -10.452952 0
-4.058377 0.67372014 0
-0.6646075 8.0916519 0
-1.0988648 3.7105387 0
4.5636382 0.72572903 0
-1.1277258 9.8411903 0
-13.559612 7.4331494 0
-6.142753 14.929718 0
1.4194298 12.573863 0
-7.0727778 14.36494 0
3.7425851 17.664392 0
619808.48 -383949.33 0
-2.6282259 22.954801 0
-4.4983419 10.081675 0
-1.2976498 -13.925529 0
-5.8917687 0.78482164 0
-7.9559351 -4.1284813 0
3.1779758 -14.118612 0
-5.6886718 10.753104 0
-3.8621229 -20.157922 0
20.598641 -11.870007 0
4.6506633 -10.211317 0
-5.8927947 -5.607208 0
-22.467144 -2.8556137 0
-1.5766269 -15.266226 0
-4.3426178 -9.3494392 0
-5.5915143 5.4526046 0
-0.6334751 -0.41570154 0
9.0298287 9.4242696 0
1.6614256 -1.0637458 0
-5.979806 4.8750287 0
0.2342962 -3.0282601 0
-3.6320286 10.941447 0
-6.7575533 22.654949 0
-3.3091318 11.772333 0
13.089274 10.400317 0
3.9721224 14.564421 0
-4.8243608 4.5141876 0
-1.4739175 21.821419 0
8.2354312 -6.0208538 0
-0.29915636 -13.583361 0
2.2391993 -7.2793283 0
1.2660673 -10.353631 0
-5.1936871 -2.7235086 0
9.9654724 2.5533537 0
-1.3090454 -3.172469 0
5.9776758 -9.797082 0
-9.3220225 8.1040602 0
-0.44300025 -0.70817777 0
0.9083304 -5.4962232 0
12.447453 -10.545049 0
0.83091287 4.0007758 0
1.183736 -0.54640093 0
7.449273 11.420143 0
-9.415251 3.9943446 0
9.6516863 -1.5959404 0
8.9333519 4.4262915 0
15.150607 -0.23768873 0
3.0543094 -1.2481364 0
4.2229001 20.671546 0
-2.383611 11.430821 0
-0.41466918 9.7942817 0
-6.5904813 10.472298 0
-4.7467784 4.684691 0
-6.5486879 -6.7368011 0
-1.9600503 -10.56077 0
0.33265544 -10.674776 0
3.7224209 -3.0813715 0
6.4993342 -1.9165372 0
-5.1860138 -8.9397727 0
-11.196083 -13.898974 0
1.5038579 -8.8521451 0
0.30371641 -8.3991007 0
5.4329539 -6.5888785 0
12.342709 -17.575759 0
1.9363127 1.4223251 0
-9.9373275 4.8721424 0
-0.84553682 9.3902069 0
0.88016499 0.076890922 0
20.976429 2.6346352 0
16.164532 4.0259183 0
8.3592001 -0.60433524 0
-0.70051068 -8.9124733 0
20.488178 6.3120921 0
7.867099 -4.3421613 0
-0.13800647 9.1106468 0
7.4452063 12.513661 0
-2.8935571 -17.680124 0
7.0375268 8.2927176 0
9.1384238 -9.85448 0
-3.8825605 -13.981295 0
-1.9192588 2.5186643 0
10.032171 0.10947218 0
7.9003628 -29.429258 0
1.5548943 -4.6557562 0
-4.2671682 -12.492672 0
3.1019879 -7.2951964 0
-1.6844952 4.1085326 0
8.2476777 -9.75107 0
0.78591897 5.1141955 0
-10.780312 1.2109896 0
8.0074618 1.9125653 0
8.2613757 3.0158933 0
-616227.85 387734.05 0
8.7786591 9.7694162 0
7.0592612 -1.7649355 0
-11.761146 2.0972786 0
-5.7192333 9.2009012 0
-1.6464655 17.954533 0
-6.4470689 6.0524513 0
1.3661325 23.701944 0
-0.29032391 16.910132 0
4.4695797 16.235659 0
11.122295 14.75774 0
5.5394773 -15.65954 0
1.3705061 -13.177952 0
5.0932469 -19.939921 0
-5.2851837 -11.548367 0
-3.1109045 4.3239839 0
-1.3390071 -2.0071913 0
5.4634477 3.7965459 0