# vtk DataFile Version 4.0
hesp visualization file
ASCII
DATASET UNSTRUCTURED_GRID
POINTS 1250 double
27.452454 -3.7616096 4
27.589741 -2.3397629 4
31.384668 -1.2024663 4
27.915908 4.3922009 4
29.922878 5.8661651 4
32.819743 5.0398782 4
33.077755 1.4799631 4
36.747748 11.505544 4
29.249223 12.673594 4
29.16518 9.6294526 4
34.310903 11.357772 4
30.526891 11.234431 4
30.369779 13.024365 4
32.714567 13.793934 4
28.459226 19.136848 4
33.871499 14.962881 4
28.251875 23.44959 4
31.630585 20.877821 4
29.814565 20.823863 4
30.733847 29.078832 4
29.883693 23.898224 4
31.478613 25.466093 4
31.394453 20.934228 4
30.725758 41.140591 4
30.410491 35.646027 4
40.501306 -8.8567231 4
26.463117 -0.91071075 4
26.633893 -5.6670092 4
29.651019 3.8743144 4
28.459838 5.8857874 4
28.7136 3.2212282 4
28.288112 1.3857001 4
23.560639 4.8013645 4
27.980935 4.8702156 4
28.027567 7.4054111 4
28.067344 10.42456 4
33.942521 11.749158 4
28.925524 17.516956 4
27.274728 12.439917 4
34.231396 12.202208 4
27.478422 22.491458 4
29.267334 14.870739 4
26.036806 19.405874 4
34.852518 18.392484 4
32.944902 23.276454 4
28.850578 29.002 4
30.516071 20.331571 4
28.390496 31.064091 4
30.067726 38.561777 4
30.614594 31.8341 4
29.318101 -2.2707447 4
30.595943 -9.8489469 4
29.125373 -1.2924214 4
33.70689 4.1402125 4
35.643031 -4.2985106 4
33.460064 5.1616911 4
29.79834 -0.86578227 4
33.941746 8.8938436 4
33.626008 11.934796 4
32.748626 11.176547 4
29.856887 8.6793295 4
30.39532 10.136788 4
32.180534 12.321756 4
33.646173 9.2540728 4
33.234428 13.104799 4
31.869659 11.832476 4
31.201415 15.550051 4
36.192454 20.477835 4
29.927839 16.868623 4
28.005407 27.217908 4
27.696164 20.008062 4
36.370603 21.959735 4
30.710733 19.228248 4
34.77217 30.581912 4
32.105114 26.174955 4
37.200346 -13.960454 4
30.724596 -2.5691715 4
31.668692 7.4802919 4
33.755772 -4.2833956 4
26.250314 6.7224475 4
30.429497 9.3085593 4
26.602561 10.213217 4
31.875933 11.252746 4
28.853939 12.100042 4
31.696654 10.051403 4
30.00868 14.883451 4
31.903363 9.2860029 4
29.86552 15.474298 4
32.344684 18.474402 4
32.066507 13.217562 4
33.155897 17.082139 4
29.483779 16.563566 4
33.079101 13.608053 4
31.522645 20.017185 4
30.128843 19.780953 4
36.042387 16.123928 4
29.8795 23.081064 4
29.775139 25.895549 4
30.280326 27.190273 4
32.509614 42.738576 4
34.830284 -9.0574707 4
28.591517 -8.8264482 4
35.943768 3.7705086 4
33.127497 5.9497 4
26.028093 -2.8825757 4
28.257212 7.9114592 4
32.069615 5.7974125 4
29.122318 2.842328 4
34.697204 7.897073 4
34.52285 5.456058 4
32.632152 7.698982 4
33.162906 6.2998783 4
34.170375 13.212595 4
31.419823 9.9714212 4
34.28093 13.768302 4
37.370442 18.270238 4
32.298409 17.499687 4
29.536825 19.196535 4
31.054211 18.553633 4
35.636204 18.805508 4
32.310196 26.391613 4
33.825336 25.302066 4
36.157775 24.371727 4
32.479521 28.082069 4
29.964684 27.99113 4
28.627683 -7.389218 4
27.139571 -5.7677066 4
35.195728 8.1666724 4
36.272513 5.8275069 4
31.803917 2.2343891 4
31.240039 10.533031 4
31.766033 8.6301359 4
36.030806 8.4638796 4
35.139506 10.476408 4
36.938047 16.523181 4
34.380613 14.960926 4
37.096131 15.013673 4
31.337091 20.333072 4
38.676146 16.996442 4
30.177883 13.776159 4
33.097778 24.200631 4
32.956524 19.383601 4
33.616833 23.093453 4
34.781892 26.028133 4
35.602014 28.084516 4
31.790801 30.263853 4
32.947181 20.50305 4
31.23228 28.853472 4
35.439126 34.901899 4
24.631471 29.49277 4
31.581092 4.4673794 4
27.087597 -11.16063 4
35.076627 3.1782679 4
31.537886 -0.78648976 4
31.166744 0.9583484 4
28.928434 6.7253629 4
31.356949 5.8622296 4
32.429039 9.3948522 4
30.792694 10.752075 4
28.850906 10.994266 4
34.267439 11.956073 4
29.914851 13.429559 4
31.272204 11.73378 4
34.662696 16.591701 4
31.589422 14.867831 4
29.179161 16.367704 4
30.059812 19.297618 4
30.667679 20.939172 4
33.566465 25.705613 4
31.937509 21.927001 4
29.713293 24.469408 4
33.126606 26.15238 4
33.513565 28.477106 4
34.6009 24.428866 4
26.4311 33.275682 4
42.936498 -5.506079 4
30.416803 0.50624388 4
32.810909 -3.9214893 4
33.774276 5.6559352 4
34.045196 10.918438 4
28.915922 -3.6963255 4
34.368474 7.045193 4
26.525564 7.5595482 4
36.594046 6.0800573 4
36.990817 9.3023884 4
32.695139 13.127305 4
30.698263 13.316122 4
33.744762 19.644856 4
33.516761 13.467512 4
37.676334 14.462883 4
34.232203 19.513271 4
34.97237 14.896769 4
30.885626 23.162173 4
34.978425 21.547506 4
29.502322 22.273055 4
32.29496 21.164502 4
30.124769 31.468073 4
34.002391 28.953589 4
32.827476 30.143957 4
41.12756 36.597533 4
32.668952 3.9930146 4
32.615289 3.2894392 4
33.868201 1.3825219 4
32.10605 -5.1158585 4
29.992802 2.9664727 4
31.455325 3.5363542 4
35.381703 6.253637 4
36.938725 10.241179 4
34.236553 10.35507 4
35.474156 12.494884 4
34.152139 17.128491 4
32.934923 18.019957 4
32.162965 14.427545 4
31.84821 13.997198 4
33.783599 20.365632 4
37.885809 19.072394 4
31.160949 13.730136 4
31.073741 12.98235 4
33.722856 14.594725 4
36.163296 18.728776 4
34.058573 25.219191 4
36.029814 27.986237 4
34.768974 22.785193 4
35.038457 30.592531 4
31.645409 27.140054 4
32.932136 -1.1150423 4
27.385257 -1.3128608 4
35.284648 0.14925414 4
33.75217 9.7923983 4
31.818771 5.2123379 4
34.776492 8.833317 4
35.026343 7.1554231 4
37.718386 8.6042328 4
36.031708 13.016956 4
37.37127 12.563753 4
34.522377 12.494133 4
31.355665 15.14988 4
33.696068 18.197517 4
35.356202 13.013849 4
32.680425 17.951319 4
35.581537 19.703626 4
36.902319 20.324853 4
35.35011 25.61289 4
34.300047 20.819741 4
35.924741 23.57172 4
32.600524 25.349916 4
32.324212 25.963349 4
31.937767 28.390646 4
33.347255 29.855239 4
26.681595 30.671234 4
28.296783 -5.392608 4
32.770002 0.53008357 4
32.42547 1.339055 4
30.901251 -1.1284036 4
39.425941 4.9577234 4
34.234443 3.3837015 4
35.608078 6.4142555 4
36.736232 4.8224365 4
36.404096 9.3485146 4
35.761087 9.464627 4
34.677198 14.832711 4
37.069459 13.695825 4
39.501301 11.693178 4
38.175514 11.221083 4
32.293648 16.700823 4
31.470563 18.132638 4
34.56381 14.246694 4
32.803472 20.203295 4
34.843901 20.770448 4
35.791265 21.276459 4
37.458742 26.697374 4
34.578738 22.028473 4
34.47947 23.133922 4
31.720726 29.032957 4
29.296711 33.219989 4
37.936563 -9.0935662 4
29.923082 -0.44829087 4
31.272982 4.3247151 4
36.921528 4.9784549 4
34.453393 6.5244744 4
40.172198 6.2518881 4
34.867713 6.6525846 4
32.091688 10.745943 4
34.910466 9.5733806 4
32.758421 9.4121115 4
33.419377 14.234274 4
33.475757 13.9112 4
35.08993 16.211214 4
34.170052 14.415594 4
37.258763 20.489472 4
36.760956 21.009098 4
33.257514 20.075369 4
35.111571 21.872755 4
33.881815 22.404188 4
32.082242 19.766316 4
34.002153 24.574136 4
35.417477 23.028639 4
30.537512 29.511292 4
31.162655 32.290825 4
39.536505 35.647973 4
33.859059 -1.7635419 4
33.863783 2.4385799 4
34.555989 1.2759696 4
30.738698 4.8768676 4
35.438749 4.5664601 4
36.240492 2.7496537 4
36.83207 7.5175151 4
38.027781 10.163801 4
37.292829 10.058487 4
34.55447 10.920083 4
34.511034 11.703902 4
35.626063 13.495241 4
35.279591 15.863618 4
33.975933 15.226607 4
34.787784 16.203486 4
46.455257 17.608206 4
36.435257 22.350819 4
35.929756 22.882057 4
33.673154 22.26797 4
36.800087 28.026269 4
35.833092 28.666467 4
36.274149 26.923641 4
37.996417 27.670187 4
34.979547 33.417737 4
31.889137 33.174024 4
34.619775 -3.2688114 4
33.015042 0.68242251 4
36.709113 3.9003992 4
34.690974 4.3561664 4
33.205946 2.7791798 4
39.152976 8.0220099 4
33.843652 7.1113489 4
37.377762 9.4078176 4
36.845351 6.8654907 4
34.821738 8.3198853 4
37.943024 11.152854 4
33.926875 12.586803 4
33.323852 14.668939 4
37.573194 13.960936 4
37.904709 18.65901 4
35.548073 15.053695 4
40.347348 15.943076 4
37.658748 16.759161 4
34.51507 19.071707 4
36.950608 21.886972 4
37.034314 22.170089 4
35.329448 23.803152 4
35.326065 24.262436 4
38.389607 31.007073 4
34.867016 31.48507 4
36.699769 2.6988455 4
35.037291 -3.6835364 4
36.424596 3.9949278 4
34.416787 1.630787 4
34.107615 4.4796715 4
37.515408 7.0478239 4
35.535113 5.3766571 4
34.13043 8.7426356 4
34.85044 12.70613 4
36.450363 10.123044 4
34.786725 13.45708 4
34.85162 11.790954 4
37.861447 15.776923 4
35.251563 15.363883 4
35.304909 18.688819 4
33.971432 18.925818 4
36.316471 20.244395 4
36.519782 21.292083 4
34.841523 22.269646 4
36.98592 25.416949 4
35.639416 24.493234 4
33.679135 27.583668 4
35.639395 21.072431 4
35.39745 31.220011 4
37.598692 29.561168 4
34.993335 0.81876606 4
36.294418 -0.0093232505 4
35.667501 2.0678373 4
34.95095 4.1515929 4
36.505858 4.6392734 4
37.901061 9.2190381 4
37.427017 13.29124 4
37.284681 12.14539 4
36.982031 12.018688 4
38.689409 13.285031 4
35.639018 15.86777 4
37.491074 15.819689 4
35.675739 18.380449 4
39.746995 18.451657 4
37.405035 18.568306 4
39.997956 17.566763 4
36.871556 18.099661 4
36.563532 19.519353 4
38.276892 17.272729 4
38.211339 19.439484 4
38.675091 19.890475 4
38.304221 28.155617 4
38.477525 29.446002 4
33.839777 26.777769 4
33.372191 30.256706 4
36.460187 1.2153891 4
37.482809 1.5772711 4
36.261852 1.3920826 4
36.873015 4.1365457 4
36.92981 5.6492486 4
37.285588 7.6267339 4
40.21332 10.824729 4
36.378001 7.6122479 4
35.139169 9.3065349 4
37.115051 11.674584 4
34.494487 14.004314 4
36.542513 11.710597 4
35.697216 14.584209 4
37.22503 16.756872 4
38.324003 16.256931 4
36.323077 16.450114 4
36.176095 18.414686 4
36.105278 19.89241 4
37.15884 21.56964 4
36.636365 23.543503 4
36.929996 23.01923 4
37.01638 24.778355 4
37.239154 25.427849 4
33.678084 30.357177 4
34.888164 29.1622 4
36.867705 1.5187402 4
37.970813 1.526312 4
37.253172 2.4696695 4
37.910582 3.5703808 4
37.892337 5.4415679 4
38.05945 5.7457497 4
38.608574 8.6288596 4
37.58879 10.097813 4
37.609965 10.440842 4
37.867446 13.070933 4
37.851654 13.7993 4
38.05674 14.689482 4
38.758118 15.211948 4
38.060251 17.178031 4
37.392599 17.323342 4
40.061842 21.328126 4
37.75946 20.025857 4
37.674963 20.375186 4
37.599405 21.627057 4
39.044956 20.349557 4
37.278944 23.618438 4
38.61378 22.695249 4
36.623279 25.75617 4
37.974982 25.743293 4
38.155089 29.817495 4
37.481075 0.44161413 4
37.124691 2.1110026 4
[...]
POINT_DATA 1250
SCALARS m double
LOOKUP_TABLE default
1
1
1
1
1
1
1
1
1
1
1
1
1
1
1
1
1
1
1
1
1
1
1
1
1
1
1
1
1
1
1
1
1
1
1
1
1
1
1
1
1
1
1
1
1
1
1
1
1
1
1
1
1
1
1
1
1
1
1
1
1
1
1
1
1
1
1
1
1
1
1
1
1
1
1
1
1
1
1
1
1
1
1
1
1
1
1
1
1
1
1
1
1
1
1
1
1
1
1
1
1
1
1
1
1
1
1
1
1
1
1
1
1
1
1
1
1
1
1
1
1
1
1
1
1
1
1
1
1
1
1
1
1
1
1
1
1
1
1
1
1
1
1
1
1
1
1
1
1
1
1
1
1
1
1
1
1
1
1
1
1
1
1
1
1
1
1
1
1
1
1
1
1
1
1
1
1
1
1
1
1
1
1
1
1
1
1
1
1
1
1
1
1
1
1
1
1
1
1
1
1
1
1
1
1
1
1
1
1
1
1
1
1
1
1
1
1
1
1
1
1
1
1
1
1
1
1
1
1
1
1
1
1
1
1
1
1
1
1
1
1
1
1
1
1
1
1
1
1
1
1
1
1
1
1
1
1
1
1
1
1
1
1
1
1
1
1
1
1
1
1
1
1
1
1
1
1
1
1
1
1
1
1
1
1
1
1
1
1
1
1
1
1
1
1
1
1
1
1
1
1
1
1
1
1
1
1
1
1
1
1
1
1
1
1
1
1
1
1
1
1
1
1
1
1
1
1
1
1
1
1
1
1
1
1
1
1
1
1
1
1
1
1
1
1
1
1
1
1
1
1
1
1
1
1
1
1
1
1
1
1
1
1
1
1
1
1
1
1
1
1
1
1
1
1
1
1
1
1
1
1
1
1
1
1
1
1
1
1
1
1
1
1
1
1
1
1
1
1
1
1
1
1
1
1
1
1
1
1
1
1
1
1
1
1
1
1
1
1
1
1
1
1
1
1
1
1
1
1
1
1
1
1
1
1
1
1
1
1
1
1
1
1
1
1
1
1
1
1
1
1
1
1
1
1
1
1
1
1
1
1
1
1
1
1
1
1
1
1
1
1
1
1
1
1
1
1
1
1
1
1
1
1
1
1
1
1
1
1
1
1
1
1
1
1
1
1
1
1
1
1
1
1
1
1
1
1
1
1
1
1
1
1
1
1
1
1
1
1
1
1
1
1
1
1
1
1
1
1
1
1
1
1
1
1
1
1
1
1
1
1
1
1
1
1
1
1
1
1
1
1
1
1
1
1
1
1
1
1
1
1
1
1
1
1
1
1
1
1
1
1
1
1
1
1
1
1
1
1
1
1
1
1
1
1
1
1
1
1
1
1
1
1
1
1
1
1
1
1
1
1
1
1
1
1
1
1
1
1
1
1
1
1
1
1
1
1
1
1
1
1
1
1
1
1
1
1
1
1
1
1
1
1
1
1
1
1
1
1
1
1
1
1
1
1
1
1
1
1
1
1
1
1
1
1
1
1
1
1
1
1
1
1
1
1
1
1
1
1
1
1
1
1
1
1
1
1
1
1
1
1
1
1
1
1
1
1
1
1
1
1
1
1
1
1
1
1
1
1
1
1
1
1
1
1
1
1
1
1
1
1
1
1
1
1
1
1
1
1
1
1
1
1
1
1
1
1
1
1
1
1
1
1
1
1
1
1
1
1
1
1
1
1
1
1
1
1
1
1
1
1
1
1
1
1
1
1
1
1
1
1
1
1
1
1
1
1
1
1
1
1
1
1
1
1
1
1
1
1
1
1
1
1
1
1
1
1
1
1
1
1
1
1
1
1
1
1
1
1
1
1
1
1
1
1
1
1
1
1
1
1
1
1
1
1
1
1
1
1
1
1
1
1
1
1
1
1
1
1
1
1
1
1
1
1
1
1
1
1
1
1
1
1
1
1
1
1
1
1
1
1
1
1
1
1
1
1
1
1
1
1
1
1
1
1
1
1
1
1
1
1
1
1
1
1
1
1
1
1
1
1
1
1
1
1
1
1
1
1
1
1
1
1
1
1
1
1
1
1
1
1
1
1
1
1
1
1
1
1
1
1
1
1
1
1
1
1
1
1
1
1
1
1
1
1
1
1
1
1
1
1
1
1
1
1
1
1
1
1
1
1
1
1
1
1
1
1
1
1
1
1
1
1
1
1
1
1
1
1
1
1
1
1
1
1
1
1
1
1
1
1
1
1
1
1
1
1
1
1
1
1
1
1
1
1
1
1
1
1
1
1
1
1
1
1
1
1
1
1
1
1
1
1
1
1
1
1
1
1
1
1
1
1
1
1
1
1
1
1
1
1
1
1
1
1
1
1
1
1
1
1
1
1
1
1
1
1
1
1
1
1
1
1
1
1
1
1
1
1
1
1
1
1
1
1
1
1
1
1
1
1
1
1
1
1
1
1
1
1
1
1
1
1
1
1
1
1
1
1
1
1
1
1
1
1
1
1
1
1
1
1
1
1
1
1
1
1
1
1
1
1
1
1
1
1
1
1
1
1
1
1
1
1
1
1
1
1
1
1
1
1
1
1
1
1
1
1
1
1
1
1
1
1
1
1
1
1
1
1
1
1
1
1
1
1
1
1
1
1
1
1
1
1
1
1
1
1
1
1
1
1
1
1
1
1
1
1
1
1
1
1
1
1
1
1
1
1
1
1
1
1
1
1
1
1
1
1
1
1
1
1
1
1
1
1
1
1
1
1
1
1
1
1
1
1
1
1
1
1
1
1
1
1
1
1
1
1
1
1
1
1
1
1
1
1
1
1
1
1
1
1
1
1
1
1
1
1
1
1
1
1
1
1
1
1
1
1
1
1
1
VECTORS v double
1.6617468 -8.8861667 0
-4.6632944 -4.8701904 0
-0.61463884 -16.388408 0
-0.726184 -13.415735 0
6.8620488 7.0250584 0
-3.7260346 -7.3474905 0
-5.607399 -4.6443942 0
5.8171414 -1.8781853 0
6.225981 2.0139331 0
-17.020339 -26.641069 0
4.4457806 3.6190519 0
3.052934 -10.349274 0
-7.6070882 1.2744766 0
-5.1633104 12.538213 0
14.306746 -8.8320683 0
-9.4062978 -7.2846069 0
12.406432 13.838266 0
-4.2154847 -8.6622765 0
-3.7922226 7.4341512 0
0.16978393 12.450463 0
8.0820528 -3.3734478 0
6.8483001 1.386966 0
-8.9426585 -11.335581 0
0.20846525 22.962112 0
1.7503394 11.104292 0
8.8399697 -9.0826405 0
2.4869504 -16.868293 0
-4.7564631 -8.9622175 0
4.06339 -9.3494508 0
-3.8035044 5.4255064 0
-3.2594055 -1.8391215 0
-12.518872 -0.7148172 0
-22.700656 -13.515032 0
0.63692928 -14.429053 0
-1.5251765 -18.024095 0
-3.2467221 12.809543 0
14.851561 0.42203502 0
1.7553908 -8.5827219 0
9.0768402 -13.357147 0
-9.1198123 -6.2897838 0
-1.0139995 6.2726442 0
0.0029617403 -15.856387 0
2.825753 -13.11066 0
1.1142661 3.3292862 0
-6.3783494 12.435523 0
-7.2132204 1.4059611 0
-3.8160377 -4.4204275 0
9.5290905 6.7678059 0
1.4688649 13.664086 0
7.3335835 18.461488 0
9.051806 -13.354802 0
3.1086725 -15.900949 0
3.9552053 -7.3123282 0
6.6785054 -6.195099 0
10.756016 -12.551926 0
-4.9433349 11.558377 0
3.7992044 -12.78338 0
34.297941 22.389251 0
2.0893178 -3.2770793 0
-4.4608961 -2.1225673 0
1.0169992 -4.5425856 0
7.474368 -1.6034873 0
0.039352569 -0.77193342 0
0.48961171 -7.7355688 0
9.1231838 7.239514 0
17.524234 -12.343789 0
4.4010933 8.6641251 0
2.9237887 0.68457729 0
3.8214663 -6.7441342 0
18.504909 13.88481 0
-1.4797045 16.28694 0
8.4059579 8.1288668 0
-1.8968064 -4.7008213 0
-0.80187893 5.7131121 0
11.579536 -1.5577344 0
3.9466542 -13.879275 0
-3.375756 -4.9922568 0
0.49954946 2.7023701 0
5.0342178 -14.7912 0
-9.2071095 -7.2734622 0
9.7809858 -9.7657137 0
-7.9843151 2.2981061 0
-5.3140482 -10.737479 0
-0.53961438 12.708321 0
-7.4024661 -7.1974919 0
-5.4847946 -2.8180591 0
7.0134223 -4.1657814 0
3.7619459 8.3499534 0
1.3165972 7.8662386 0
-4.8817642 -2.5672982 0
4.8718225 12.83795 0
-0.5927392 -9.3389255 0
-7.8895827 -4.3390608 0
21.579198 6.1368768 0
0.51624983 4.0931846 0
4.4458825 -17.163801 0
-5.0099679 11.461945 0
-11.887047 7.5825244 0
-1.8316017 8.2269565 0
0.47115537 14.494985 0
3.3724311 -12.746329 0
-5.5576453 -14.75574 0
-6.4303975 -6.8529984 0
5.5088978 -16.012587 0
-7.6767004 -8.6942943 0
-14.461514 -0.021296082 0
-2.8805748 0.21352247 0
-6.9273691 -8.026631 0
7.7033511 5.5793229 0
9.7045937 -11.829172 0
-6.4456716 -0.96305435 0
9.2138595 -6.0446238 0
7.8816177 -3.7635153 0
-13.579613 -1.2853176 0
7.4978496 5.5459518 0
11.629588 6.1019912 0
-7.7661776 1.77643 0
1.3073202 -1.0987231 0
1.3686241 -0.2648549 0
-0.81796131 8.4160734 0
-8.336338 -3.2750363 0
6.1650944 6.8001263 0
-0.70000153 8.0097616 0
-2.9664516 9.5818969 0
6.438735 1.7232693 0
-2.3600551 -9.0025795 0
0.11774094 -22.496933 0
2.209581 3.1925874 0
-4.7535774 3.1852311 0
-15.522701 -3.491097 0
17.521033 8.1307539 0
-7.6647683 -2.8020002 0
0.97878515 -9.3734037 0
-5.4002538 2.9291886 0
10.653405 3.790435 0
6.6177123 -4.7839865 0
-10.914332 5.653934 0
-5.2664849 14.70869 0
2.8209997 -8.311038 0
-0.11425379 -2.8727048 0
5.5208953 4.1735707 0
4.9182021 -6.1905967 0
1.8132133 3.9630262 0
2.0062429 8.6063528 0
14.825763 11.210518 0
-3.0962176 4.4488447 0
-4.1330843 -5.0220831 0
-7.6493476 2.0251511 0
2.7835688 9.3003209 0
15.629939 7.5811733 0
-1.3014218 -14.456174 0
-7.1221573 -15.01762 0
5.8143277 -11.043126 0
-3.8291846 -9.3403847 0
-0.83058195 -8.0441781 0
-0.69354807 5.4066076 0
-6.5293674 -1.2589155 0
3.4683778 -1.7366238 0
-2.5222418 -1.0417174 0
-2.0816902 -1.2894129 0
-7.9077222 -16.586096 0
6.1551731 -0.76715725 0
0.10814149 -5.73415 0
0.17298674 0.88403161 0
11.430475 13.287688 0
-13.594665 -2.4154998 0
-0.56886188 8.960297 0
-7.007629 -0.80903888 0
5.517284 9.3741433 0
3.0127971 1.8062161 0
-5.4389581 -2.6125511 0
-8.9523951 3.8647847 0
1.8386909 12.88523 0
-9.7324711 4.0951249 0
-8.8188203 7.2653918 0
7.9152496 -6.5258364 0
4.0729385 -8.6455679 0
0.10257067 -13.993039 0
-8.8145691 4.3579462 0
1.9933558 9.1650274 0
-4.6975524 -16.490413 0
5.5750904 5.077059 0
-6.9921037 6.0626886 0
-7.7933595 2.4683676 0
-2.3215476 -3.7682661 0
3.3928958 8.2342513 0
-3.1941734 6.1968763 0
9.4121846 12.523866 0
0.13474493 -19.608184 0
2.2269538 11.179771 0
0.41130091 -15.691825 0
5.3602891 4.3955379 0
-4.3588052 0.54852361 0
5.5538983 3.5117406 0
-5.0924782 -3.5969186 0
5.0404907 5.4415506 0
-9.1957777 4.9351373 0
-8.1646813 2.5652982 0
7.4517836 5.7087492 0
6.2745604 8.8214646 0
-3.5927989 6.9186213 0
-4.2041894 4.3369966 0
-0.5807257 0.42517417 0
6.0199728 -18.671592 0
-13.851794 -7.9044567 0
-8.2042284 1.3840416 0
-7.464055 -6.1217054 0
-8.3771788 5.699191 0
0.29824428 -10.958652 0
-6.7571731 3.8212474 0
-2.3143789 -4.1060279 0
-2.8520615 9.6696769 0
12.969867 -7.0684599 0
-2.9154921 2.4889261 0
0.51502086 12.604147 0
-0.67462368 -1.2726678 0
2.4992482 -5.1819757 0
4.0159618 -13.867191 0
-17.387937 -0.53702278 0
0.42448504 -8.8733666 0
4.6325515 -3.3218661 0
3.472531 4.4714613 0
-4.9875853 -3.7586153 0
5.1154942 6.9549927 0
9.2372392 0.4172789 0
2.7943204 -1.0622447 0
-5.1558346 -13.825204 0
3.2343049 -6.0005041 0
4.0902041 8.6060523 0
1.7889122 -3.7923635 0
-1.1155017 -1.1118565 0
-0.0089998871 1.2954889 0
10.703472 -3.1871584 0
12.839778 3.1147739 0
8.2631506 -12.569117 0
4.0744591 3.9461585 0
-1.1496274 -19.254907 0
-8.2513332 14.41696 0
-7.6590915 -8.5926448 0
-3.8122151 -6.65183 0
-10.126128 -1.6163141 0
-5.0143888 0.54889113 0
-1.0966821 3.0712982 0
2.3025505 -5.2540512 0
-5.594326 8.8523641 0
-0.17503788 -3.583814 0
-12.340912 0.75705728 0
-7.005349 4.743339 0
5.9168874 7.6980017 0
-9.9500668 7.290303 0
-9.3671349 -11.170765 0
0.48107249 -4.7497407 0
-0.98813924 -5.356175 0
-12.108226 -0.4989256 0
4.976554 0.22435351 0
-0.20637984 -1.9860886 0
-0.11199347 3.6344619 0
8.7955236 -10.176323 0
8.4612 -4.7268984 0
9.3412565 8.6502085 0
4.5950833 8.4968898 0
5.7001331 -4.3616353 0
8.3659956 1.2936399 0
-1.6041102 -4.6769988 0
-5.6294015 2.1038255 0
2.9694423 -5.6036311 0
3.1599652 6.5178177 0
-11.584598 5.7265367 0
-9.9530223 -5.6686796 0
1.9825232 5.5871848 0
-4.9594004 2.5066945 0
4.7587222 6.0908486 0
3.7397483 -2.2187497 0
-8.931699 3.2411658 0
0.22063804 0.94255364 0
0.8313356 -12.772029 0
-7.8174839 -5.6283277 0
-7.2647523 4.4641849 0
2.3128069 -10.23877 0
4.244291 -7.4562223 0
7.4092282 1.5836664 0
8.3352872 -3.5655292 0
-10.130704 10.800045 0
-0.92550685 8.7509703 0
2.622111 13.199839 0
-1.3443335 -3.4204527 0
-9.3810287 6.713557 0
-9.8137483 14.462451 0
-12.625136 0.58207536 0
8.8469186 15.087394 0
-5.3024887 5.5300319 0
-5.6043826 -1.2601396 0
-12.192333 -4.5373396 0
-10.85188 -1.5774379 0
-7.5815953 15.683102 0
5.7410605 13.739966 0
-1.3925834 6.1316907 0
0.69043305 6.4889535 0
-12.49959 8.9270971 0
3.3786947 9.8880264 0
-0.83945537 -7.640956 0
3.4151618 -0.57372321 0
-8.3264045 2.0483943 0
-6.9945102 1.4285213 0
-11.789748 0.75289416 0
2.535568 -20.543523 0
4.4080507 -6.1527499 0
-10.180428 0.2927103 0
10.693315 -6.85013 0
-10.130384 -1.5995726 0
3.456591 -17.72057 0
-8.2681283 3.3238908 0
-4.212398 1.0054556 0
-18.307629 -10.570803 0
-3.9693572 -0.18554639 0
11.979384 -7.2830737 0
5.3678024 -7.1159638 0
-7.9825683 5.0897524 0
-7.3751741 -4.5251316 0
-0.48787158 12.41985 0
-0.61717583 5.1696213 0
1.5537673 -2.8854302 0
-2.5848188 5.751719 0
-4.5675064 9.5569687 0
4.7015288 19.016687 0
0.33588963 -14.621727 0
-2.6359905 -6.9546764 0
-5.3637766 -1.0045285 0
-5.6715407 7.5320732 0
-10.454739 -16.396053 0
-10.093901 2.8227317 0
-1.3557278 -10.556677 0
-1.0067333 -1.8558823 0
-1.191787 -8.0574097 0
-10.104061 -3.6914532 0
8.3344726 4.3237319 0
9.0481463 8.0483715 0
-8.0223458 1.3841884 0
-2.4874138 -6.316919 0
1.4647619 -1.7803749 0
2.8102569 -10.340031 0
-8.6186299 4.1782219 0
-5.0678958 4.9072798 0
-13.296139 -3.2694616 0
1.7307908 10.869767 0
-2.1995428 3.9798941 0
-4.6185797 -2.3243268 0
-2.0537044 5.4568729 0
0.92492667 11.822168 0
-3.0051951 14.141901 0
9.5826598 -2.9025605 0
-2.9879488 -22.780315 0
-4.1737171 -6.4914994 0
-10.956958 -2.822814 0
-1.2093213 -4.7042698 0
-4.1936946 -4.1713774 0
-4.5943527 -6.8205479 0
-7.8793254 -1.7964248 0
-3.7798325 6.0472297 0
9.8343175 -9.9299562 0
2.9392482 6.9763718 0
-3.338515 5.0183005 0
6.7977174 8.8378481 0
-1.8978658 1.052651 0
4.3722858 5.3243073 0
-5.1816312 -1.7977352 0
2.9483988 -4.481946 0
7.8394148 3.7834726 0
-9.7150111 -4.0481737 0
-2.375059 2.4897496 0
-3.7728896 3.5813928 0
-6.4393723 14.350583 0
11.106929 0.59437246 0
-4.0095224 9.2099343 0
0.15701511 3.0672658 0
-4.589837 -3.828534 0
-4.885152 -10.461033 0
-10.475574 -1.3925766 0
-7.8436637 9.9006701 0
-2.545485 1.7691408 0
2.9846703 9.422898 0
-9.4880977 -1.9116356 0
1.6733188 3.9072445 0
-1.616274 -7.6476299 0
0.85328412 2.0324155 0
4.8816892 4.7049924 0
2.7702245 -1.1654701 0
-11.886371 9.4419429 0
12.916598 6.9427858 0
0.46835396 5.926717 0
6.0946227 1.462602 0
-6.3488897 2.3519343 0
1.0897516 -5.1300797 0
15.684222 -1.220808 0
-6.0513026 -8.8189189 0
8.908953 3.3676138 0
-4.7874726 0.47170872 0
-4.2624557 13.860271 0
-9.1041295 -0.73520854 0
-13.137938 10.322109 0
-1.0476908 -1.8268963 0
-3.8195833 3.2427155 0
-7.6127676 -12.643445 0
2.5644305 -0.61582002 0
-8.5764658 -3.4692632 0
-6.2796282 2.0574429 0
1.5895089 -1.3410457 0
-2.588257 -10.905177 0
-4.3948096 -10.584021 0
5.2283232 -2.0869103 0
-15.093547 5.6041265 0
4.4395977 -7.1656916 0
-4.9304744 0.25759175 0
-9.0178279 -1.6967066 0
-8.8626609 2.1229464 0
1.6395047 -3.3669988 0
-3.0282797 -3.5592563 0
-7.8227174 -2.5002499 0
-1.5967386 -0.083246799 0
-6.7472169 3.9129154 0
-0.027845277 2.9737306 0
-9.04625 -0.6313397 0
-4.921455 1.5377062 0
-16.709791 8.9747596 0
-5.5335855 3.0775728 0
1.6509992 4.8489262 0
0.047721504 -3.1573103 0
-0.66568699 0.10608263 0
6.310502 -6.0629647 0
1.6334823 1.2950378 0
-5.3287128 -1.3161519 0
-1.5394169 -2.509457 0
-1.1304194 -8.3827607 0
-5.1931725 5.4765746 0
-6.2255618 6.1468071 0
5.8008313 12.83385 0
-0.43862312 1.8648532 0
4.0582736 -5.3709018 0
-4.1235069 3.1719151 0
-9.9586967 -0.5480224 0
1.1990812 5.2654767 0
-4.823745 -0.96522963 0
-4.6277809 1.7679162 0
0.76800989 2.4471634 0
8.0258275 11.010295 0
1.3306475 2.3469364 0
-8.1372008 0.06447018 0
-13.070804 0.78153646 0
-2.3003715 -3.593772 0
-2.2389261 4.696726 0
-5.3918612 -8.9813629 0
-9.8855047 -8.2715292 0
-9.985279 0.081514726 0
-10.070099 0.14605803 0
2.8481743 6.4548146 0
-10.047514 0.015442137 0
2.4390535 1.1872412 0
-5.2334748 1.7111081 0
-6.0065388 -9.1807265 0
2.947109 -0.036543223 0
6.8891487 -0.23670056 0
6.8757321 -0.25259977 0
6.7085924 -0.018741946 0
6.8595819 -0.26521388 0
6.408294 -0.10612152 0
-7.7830935 3.0089879 0
5.8730748 -11.354648 0
-11.824949 7.416816 0
5.9790741 -16.646691 0
-8.4359819 -1.2248168 0
0.34423335 11.787775 0
0.42820222 -5.85985 0
0.24458278 1.1965394 0
-6.4960234 -1.3008094 0
-9.8946612 -0.32214627 0
-10.017339 0.030982884 0
-10.00277 -0.0031012048 0
-10.031809 0.017758865 0
-10.0014 0.11420037 0
-3.0210777 -4.4702776 0
-9.6951478 0.096157577 0
-6.7335368 -9.1760957 0
-7.4131039 8.8007525 0
-13.060263 4.5995448 0
-10.830577 -7.8620783 0
1.92023 -3.5468118 0
-12.901814 13.500854 0
-6.9551788 -2.4147888 0
-10.539056 -7.7339106 0
-10.304768 -4.9473552 0
-4.0478243 -10.288537 0
-10.027369 0.17103133 0
-9.6486581 -3.8541029 0
0.066688789 4.0351098 0
-9.7581407 -9.1830523 0
-5.509342 -8.8416724 0
-10.017782 -0.080645241 0
-9.6173727 0.11913036 0
-9.5006963 -1.2012202 0
-2.2411544 9.6861224 0
-9.9999121 0.01275644 0
-10.00001 -0.00013280126 0
-10.000011 3.9367582e-05 0
-10.014576 0.053740969 0
-10.072748 0.065534777 0
-10.018304 -0.039332627 0
-9.7605197 5.127613 0
-10.016733 -0.03866148 0
4.9556243 -1.0209997 0
-9.7047997 0.81542143 0
-10.007375 0.07538385 0
-10.002424 0.062260087 0
-9.9587213 0.13929589 0
-10.005686 -0.096038906 0
-9.9553298 0.26601221 0
-10.051611 0.035651083 0
-10.015909 -0.038879446 0
-10.25388 0.048813806 0
-12.215857 3.0614428 0
-9.9802818 0.034088462 0
-8.4846077 -3.1182183 0
-9.9971588 -0.0050186356 0
-10.000012 4.5654839e-05 0
-10.003858 0.016250518 0
4.3059176 -3.3541118 0
-9.9996116 0.012749066 0
-9.9999608 -0.00010905746 0
-9.9999677 2.1379755e-05 0
-10.000042 5.8139929e-05 0
-10.001328 0.0016347164 0
-10.003743 -0.0038760466 0
1.9501328 -11.082097 0
-5.1680319 -2.1078276 0
-4.2139926 14.027527 0
-10.01141 0.63332844 0
-0.43880092 8.2741775 0
-10.042415 0.79518114 0
-9.9657607 -1.3630787 0
12.134287 -13.218505 0
3.4590829 -4.5158108 0
-10.003415 -0.0077013999 0
-9.9904884 -0.094072702 0
-10.000219 0.00033778005 0
-10.035129 0.00039586035 0
-10.003389 -0.0011562168 0
-10.003237 0.0035759941 0
-10.47747 3.9151903 0
-10.000673 -0.01027932 0
-10.000565 0.0019037846 0
-9.7680072 1.1520316 0
-9.9993858 0.012750712 0
-9.9999419 -9.5970255e-05 0
-9.9999443 3.5777664e-05 0
-9.9999456 3.7709682e-05 0
-9.9999563 3.9097243e-05 0
-9.9999807 6.5891072e-05 0
-10.002133 0.0015503359 0
-9.9860888 0.26256142 0
-10.009172 0.013126442 0
-9.9201132 -0.040532156 0
-10.003592 -0.048704697 0
-10.005502 -0.028959092 0
6.5418874 0.68408795 0
-11.465067 -3.7792501 0
-10.008583 -0.22545904 0
-10.000326 0.0017770078 0
-10.011618 0.09148252 0
-9.9997804 -0.00017038224 0
-9.9999602 3.111893e-05 0
-9.9999779 5.7794843e-05 0
-9.9959775 0.030588473 0
-5.4396652 4.8840144 0
-9.999837 -0.00084241812 0
-9.9999746 0.00018283889 0
-10.00003 -0.012729216 0
-9.9991559 0.012757805 0
-9.9998038 -9.3593131e-05 0
-9.9998018 3.626341e-05 0
-9.9998023 3.9983033e-05 0
-9.9998018 3.9948828e-05 0
-9.9998026 4.0078468e-05 0
-9.9998332 6.2174735e-05 0
-10.005648 0.0035382209 0
-10.000703 0.0006087387 0
2.1802013 -5.0304948 0
-10.049912 -0.090008879 0
-10.049962 -0.086138955 0
-9.1162789 -0.20037887 0
-10.060506 -0.084725898 0
-10.025146 -0.041331681 0
-9.9993446 0.00086638702 0
-9.0815936 5.0827839 0
-9.9504189 -0.16297642 0
-9.9997769 -1.4482055e-05 0
-9.9997755 4.7355986e-05 0
-9.9999113 0.00011724359 0
-10.000622 0.00017173148 0
-9.999841 -1.9075048e-05 0
-9.9997645 0.00017623487 0
-9.9997759 -0.012710183 0
-10.011293 0.012047663 0
-10.012662 -7.2437788e-05 0
-10.012655 3.9673326e-05 0
-10.012639 5.0700406e-05 0
-10.012637 5.1685538e-05 0
-10.012637 5.21635e-05 0
-10.01264 5.0926749e-05 0
-10.012651 5.0630725e-05 0
-10.012702 8.0479245e-05 0
-10.013518 -2.791028e-05 0
-10.012764 1.942874e-05 0
-10.012727 4.8492685e-05 0
-10.012743 4.81774e-05 0
-10.012725 4.2104927e-05 0
-10.012683 6.3735768e-05 0
-9.9999207 0.036375879 0
-10.017315 -0.013151752 0
-10.013456 -0.00031336029 0
-10.012665 3.2678671e-05 0
-10.012632 5.6592606e-05 0
-10.012646 5.5037728e-05 0
-10.012647 5.398349e-05 0
-10.012638 5.8247914e-05 0
-10.012644 0.00017101871 0
-10.011937 -0.011997803 0
9.3664052 -3.8409628 0
10.647821 -1.8653593 0
11.388548 8.1245317 0
6.9875066 -11.31456 0
0.48301548 -3.3608422 0
-7.8064865 -11.354258 0
-3.4435501 -2.111744 0
1.3596704 -7.1550794 0
10.149113 -8.0850446 0
11.786161 -0.034844583 0
-3.5023891 -16.795048 0
0.89084197 4.2173904 0
17.130954 0.43997055 0
-0.63494532 10.783718 0
-2.8042048 -0.60386851 0
2.2192073 6.9438542 0
-0.49431842 0.014254902 0
21.704368 -4.9558525 0
-6.1639152 14.964509 0
-7.7082204 -2.2702915 0
7.7773453 1.6077543 0
2.5974351 9.0076677 0
-1.6184666 7.4042682 0
-2.6282259 22.954801 0
-9.4460626 5.5474349 0
8.1479338 -4.1687693 0
4.1311123 4.7550465 0
2.1451061 -8.3757312 0
-7.2856989 6.3214051 0
1.5214251 8.6140839 0
-1.6510774 -6.7652681 0
0.32157413 8.1524876 0
-2.0221724 3.3267989 0
-2.692924 6.9544562 0
-4.0848812 9.9931756 0
-3.2761791 -2.266817 0
-0.85021911 0.094983667 0
5.3213492 -0.546987 0
24.962569 -5.4027456 0
1.3968278 -1.1959299 0
2.2196733 -3.1920453 0
8.8805964 2.0874528 0
2.4796337 0.37581253 0
-2.2811425 7.0762468 0
4.1531246 7.0729976 0
-0.1699918 11.063864 0
-2.3437108 7.9262193 0
-4.1426361 -2.6349826 0
-0.8424729 11.844851 0
-0.12001207 9.3396206 0
8.2356062 -6.0207548 0
0.42445561 -0.35869964 0
13.690414 -11.672657 0
5.9178846 -4.9828017 0
-1.43488 -12.839388 0
10.831748 -0.91219472 0
7.135762 0.79683979 0
2.1598773 -15.060581 0
5.3558056 17.947134 0
-5.8749261 9.7137092 0
-8.8780664 6.7155831 0
-10.452757 -3.8898173 0
6.5573977 -2.4928174 0
6.8148269 -0.092578386 0
-10.07744 -4.4299608 0
-0.47474781 -8.8435821 0
1.6597268 8.1186907 0
3.3956064 5.1821718 0
13.009723 9.9262889 0
10.112301 10.005086 0
4.0262458 9.8882198 0
-1.9268304 11.648198 0
6.4570587 7.0111576 0
-6.5319809 10.588225 0
-2.0819906 7.6659805 0
-6.5485298 -6.7367891 0
-1.9776105 -10.564107 0
17.137464 -7.0030597 0
-2.4480933 -1.336954 0
0.71844487 -0.39570862 0
-14.795176 -10.946864 0
0.55471643 -8.8002261 0
2.2003213 -17.860149 0
3.6572331 -15.574788 0
-6.5706482 -6.3424605 0
0.35583775 -20.822541 0
-4.7460759 9.7305891 0
-2.7537643 -1.6342437 0
7.4829916 6.6455994 0
14.199948 1.5126413 0
0.94857818 -5.3808957 0
-8.3591432 1.0647066 0
-9.3856426 0.33051928 0
2.6162209 -12.357137 0
-7.132675 6.7987048 0
6.6445651 -0.58358878 0
10.366087 1.171751 0
-8.2395076 0.75527561 0
-4.5531652 3.2684673 0
7.0375735 8.2928949 0
8.3183107 -8.7022343 0
3.7109992 -0.48221036 0
8.8926938 -1.3780029 0
26.769274 -3.6879267 0
5.598131 -6.5937031 0
13.787393 -2.3641784 0
-9.7782039 -7.8084866 0
4.1635175 -4.1709267 0
8.3224834 -21.326346 0
1.8117284 -8.9863889 0
1.5735071 -0.61907144 0
-10.851592 0.83358601 0
7.8462163 13.392371 0
-2.5229527 14.867013 0
-14.267416 0.98853686 0