# vtk DataFile Version 4.0
hesp visualization file
ASCII
DATASET UNSTRUCTURED_GRID
POINTS 1250 double
29.194621 2.4475927 4
29.640316 1.5143415 4
31.769975 3.5219275 4
30.352926 6.2278191 4
30.919506 4.914672 4
31.466583 6.6082195 4
31.606992 7.7663128 4
31.557959 8.8720376 4
31.111971 10.103239 4
31.20938 11.152702 4
31.870123 11.92457 4
29.937582 14.01524 4
30.240066 15.306209 4
30.789405 15.088945 4
30.978192 18.021213 4
31.675186 16.390886 4
30.061126 19.103011 4
30.14393 20.511009 4
30.957704 21.922505 4
30.036948 22.897126 4
30.922313 22.672087 4
30.397337 24.950897 4
31.086704 25.00538 4
30.442445 26.850635 4
29.304882 27.647043 4
33.781856 -1.9518122 4
30.208057 3.5036561 4
30.325015 1.2415246 4
30.467594 4.4784423 4
29.577479 4.2479506 4
29.081119 5.2012883 4
29.107578 6.2944074 4
29.103581 7.4330998 4
29.069276 8.5755829 4
29.077884 9.8376901 4
30.539245 12.268918 4
30.489574 11.887873 4
29.628597 13.927449 4
28.618788 14.871025 4
30.909545 16.245946 4
29.984012 19.476367 4
29.352457 18.342228 4
29.313312 19.429487 4
30.390351 21.538817 4
31.525128 22.134059 4
30.726059 24.204286 4
31.493342 24.431324 4
29.842196 25.899706 4
28.95127 28.176902 4
32.140236 28.979152 4
28.704008 2.4414697 4
30.7512 -0.5856329 4
31.543399 3.0860812 4
32.455747 3.9033114 4
31.170777 3.5828345 4
32.04499 5.0743231 4
31.566468 5.9506058 4
31.429522 7.5409497 4
31.28661 8.5662681 4
31.372419 9.8425967 4
31.359635 10.544987 4
31.474156 11.911773 4
31.201575 12.516645 4
31.205235 13.623781 4
31.474552 14.90731 4
31.630561 15.663688 4
32.535094 17.491623 4
32.154601 17.985417 4
32.175599 18.553871 4
32.038147 21.2676 4
31.178142 21.549497 4
31.203935 22.677848 4
31.128545 23.843407 4
31.225722 26.075696 4
32.676001 27.371468 4
34.200889 -3.4122022 4
31.278914 2.0980506 4
30.757192 5.5409507 4
30.740728 4.4760066 4
30.511056 5.9716324 4
30.181473 7.2471202 4
30.243041 8.2849587 4
30.466169 9.5213 4
30.11295 10.828994 4
31.116544 11.67377 4
30.727363 13.500461 4
31.361609 14.46639 4
31.13181 15.586989 4
30.92829 17.407331 4
29.828559 15.986743 4
31.158697 16.461443 4
31.296951 18.262114 4
31.626628 19.446813 4
31.551424 20.008751 4
31.724686 20.93143 4
31.782208 22.071473 4
31.973697 23.324233 4
31.920537 24.377983 4
30.159569 26.833955 4
32.151536 31.722387 4
32.267783 0.62802468 4
33.331284 0.77861705 4
34.042673 2.4872564 4
33.658853 4.3482062 4
32.634514 5.2647107 4
33.979593 6.2397897 4
33.981536 7.365011 4
33.979219 8.4845804 4
33.980214 9.6083012 4
33.981368 10.734384 4
33.984607 11.861176 4
33.953812 12.957174 4
33.957383 14.080922 4
33.942679 15.19889 4
33.943442 16.321267 4
33.106552 17.237878 4
33.101212 18.353788 4
33.107558 19.278699 4
33.110801 20.393319 4
34.01971 21.933487 4
34.019362 23.055612 4
33.921342 23.77502 4
34.13769 24.36956 4
33.302748 26.498138 4
31.995534 26.914046 4
31.101726 0.49657413 4
32.093976 3.0402223 4
34.268204 5.5005477 4
35.397557 5.6450013 4
35.402294 6.7711402 4
35.40178 7.8937955 4
35.402036 9.0161625 4
35.401728 10.138739 4
35.401851 11.261155 4
35.401851 12.383617 4
35.402361 13.505891 4
35.398593 14.629916 4
35.398934 15.752211 4
35.408053 16.861097 4
35.407864 17.983858 4
35.432238 19.119566 4
35.432242 20.24204 4
35.432554 21.365153 4
35.432556 22.487618 4
35.425331 23.599695 4
35.425304 24.722192 4
34.974991 25.332261 4
35.421445 26.967585 4
33.704352 28.028202 4
31.06621 28.404799 4
33.035224 3.2958498 4
32.501981 0.25729396 4
35.729965 4.80395 4
32.179269 4.3719872 4
32.177715 5.4919028 4
32.177406 6.6159916 4
32.177508 7.7380927 4
32.177373 8.8609908 4
32.177443 9.9832898 4
32.177439 11.105895 4
32.17754 12.227483 4
32.176034 13.355006 4
32.176154 14.477038 4
32.175475 15.60142 4
32.175545 16.723245 4
32.417878 18.421016 4
32.412393 19.537082 4
32.492059 20.734286 4
32.493082 21.858061 4
32.188381 22.280259 4
32.205011 23.406498 4
32.18789 24.525964 4
32.821301 25.274849 4
33.086267 25.26288 4
33.191682 27.602654 4
36.91812 -0.54392052 4
33.98737 3.6585561 4
33.392581 3.4978159 4
34.841505 5.1697724 4
33.319516 5.8903909 4
33.32004 7.0080396 4
33.319436 8.1360841 4
33.319697 9.2560799 4
33.320461 10.37221 4
33.321496 11.486629 4
33.317135 12.666612 4
33.317263 13.784194 4
33.317219 14.923435 4
33.317229 16.045356 4
33.693209 17.055277 4
33.709212 18.206972 4
33.596345 19.471422 4
33.586891 20.598948 4
33.318424 21.680514 4
33.318611 22.804047 4
33.319356 23.926266 4
33.473712 25.224092 4
34.258064 26.169087 4
33.354072 27.424023 4
36.358787 29.893023 4
33.837121 1.1771789 4
37.066799 1.5674006 4
35.183272 2.045449 4
34.789215 3.3627608 4
34.788147 4.4844794 4
34.788869 5.6061464 4
34.788976 6.7287669 4
34.788954 7.8512504 4
34.788967 8.9736997 4
34.788953 10.096174 4
34.788958 11.218632 4
34.788951 12.341103 4
34.789024 13.463482 4
34.788839 14.586132 4
34.788861 15.708583 4
34.8103 16.80396 4
34.810131 17.926613 4
34.816855 19.039688 4
34.816854 20.162152 4
34.81674 21.284761 4
34.816734 22.407231 4
34.817657 23.528484 4
34.81766 24.651085 4
35.527596 26.025096 4
35.587823 27.301098 4
34.624541 1.1244552 4
34.516045 2.1724937 4
36.726691 4.3322793 4
37.12868 5.3259604 4
37.132085 6.4454445 4
37.132086 7.5679072 4
37.132086 8.6903692 4
37.132086 9.8128313 4
37.132086 10.935293 4
37.132086 12.057755 4
37.132086 13.180218 4
37.132088 14.302677 4
37.132072 15.425154 4
37.13209 16.5476 4
37.132094 17.670053 4
37.098226 18.82124 4
37.098226 19.943697 4
37.098225 21.066159 4
37.098226 22.188621 4
37.098231 23.311079 4
37.098231 24.433542 4
37.098233 25.556002 4
37.098137 26.678497 4
36.714831 27.91558 4
34.623834 28.058396 4
35.749112 1.1327926 4
35.746419 2.2436791 4
35.744048 3.372824 4
35.744726 4.4968617 4
35.739698 5.6295691 4
35.739687 6.7520484 4
35.739688 7.8745107 4
35.739688 8.9969727 4
35.739689 10.119435 4
35.739688 11.241897 4
35.739688 12.364359 4
35.739687 13.486821 4
35.739697 14.609284 4
35.739696 15.731746 4
35.739679 16.854203 4
35.739859 17.975765 4
35.739818 19.098143 4
35.739818 20.220605 4
35.739817 21.343068 4
35.739817 22.46553 4
35.739832 23.587987 4
35.73983 24.710451 4
35.739658 25.832963 4
35.743781 26.943907 4
35.747883 28.057223 4
37.308576 0.60865266 4
36.869519 2.2448552 4
36.869519 3.3674118 4
36.967231 4.5694316 4
36.869078 5.6100953 4
36.869113 6.7325417 4
36.869113 7.8550037 4
36.869113 8.9774658 4
36.869113 10.099928 4
36.869113 11.22239 4
36.869113 12.344852 4
36.869113 13.467314 4
36.869113 14.589776 4
36.869113 15.712238 4
36.869113 16.8347 4
36.869135 17.957118 4
36.868481 19.081058 4
36.868482 20.20352 4
36.868482 21.325982 4
36.868482 22.448444 4
36.868482 23.570906 4
36.868482 24.693368 4
36.868482 25.815829 4
36.868544 26.938186 4
36.968785 28.132495 4
37.991991 1.1243844 4
37.992005 2.2449327 4
37.992006 3.3673863 4
37.992004 4.4898487 4
37.992003 5.61231 4
37.992003 6.734772 4
37.992003 7.8572341 4
37.992003 8.9796961 4
37.992003 10.102158 4
37.992003 11.22462 4
37.992003 12.347082 4
37.992003 13.469544 4
37.992003 14.592006 4
37.992003 15.714468 4
37.992003 16.83693 4
37.992003 17.959392 4
37.992003 19.081855 4
37.992003 20.204317 4
37.992003 21.326779 4
37.992003 22.449241 4
37.992003 23.571703 4
37.992003 24.694165 4
37.992003 25.816627 4
37.992004 26.939079 4
37.992006 28.059626 4
39.114469 1.1243872 4
39.114469 2.2449338 4
39.114469 3.3673861 4
39.114469 4.4898482 4
39.114469 5.6123102 4
39.114469 6.7347723 4
39.114469 7.8572343 4
39.114469 8.9796964 4
39.114469 10.102158 4
39.114469 11.22462 4
39.114469 12.347083 4
39.114469 13.469545 4
39.114469 14.592007 4
39.114469 15.714469 4
39.114469 16.836931 4
39.114469 17.959393 4
39.114469 19.081855 4
39.114469 20.204317 4
39.114469 21.326779 4
39.114469 22.449241 4
39.114469 23.571703 4
39.114469 24.694165 4
39.114469 25.816627 4
39.114469 26.939079 4
39.114469 28.059626 4
40.236931 1.1243872 4
40.236931 2.2449338 4
40.236931 3.3673861 4
40.236931 4.4898482 4
40.236931 5.6123102 4
40.236931 6.7347723 4
40.236931 7.8572343 4
40.236931 8.9796964 4
40.236931 10.102158 4
40.236931 11.22462 4
40.236931 12.347083 4
40.236931 13.469545 4
40.236931 14.592007 4
40.236931 15.714469 4
40.236931 16.836931 4
40.236931 17.959393 4
40.236931 19.081855 4
40.236931 20.204317 4
40.236931 21.326779 4
40.236931 22.449241 4
40.236931 23.571703 4
40.236931 24.694165 4
40.236931 25.816627 4
40.236931 26.939079 4
40.236931 28.059626 4
41.359393 1.1243872 4
41.359393 2.2449338 4
41.359393 3.3673861 4
41.359393 4.4898482 4
41.359393 5.6123102 4
41.359393 6.7347723 4
41.359393 7.8572343 4
41.359393 8.9796964 4
41.359393 10.102158 4
41.359393 11.22462 4
41.359393 12.347083 4
41.359393 13.469545 4
41.359393 14.592007 4
41.359393 15.714469 4
41.359393 16.836931 4
41.359393 17.959393 4
41.359393 19.081855 4
41.359393 20.204317 4
41.359393 21.326779 4
41.359393 22.449241 4
41.359393 23.571703 4
41.359393 24.694165 4
41.359393 25.816627 4
41.359393 26.939079 4
41.359393 28.059626 4
42.481855 1.1243872 4
42.481855 2.2449338 4
42.481855 3.3673861 4
42.481855 4.4898482 4
42.481855 5.6123102 4
42.481855 6.7347723 4
42.481855 7.8572343 4
42.481855 8.9796964 4
42.481855 10.102158 4
42.481855 11.22462 4
42.481855 12.347083 4
42.481855 13.469545 4
42.481855 14.592007 4
42.481855 15.714469 4
42.481856 16.836931 4
42.481856 17.959393 4
42.481855 19.081855 4
42.481855 20.204317 4
42.481855 21.326779 4
42.481855 22.449241 4
42.481855 23.571703 4
42.481855 24.694165 4
42.481855 25.816627 4
42.481855 26.939079 4
42.481855 28.059626 4
43.604317 1.1243872 4
43.604317 2.2449338 4
43.604317 3.3673861 4
43.604318 4.4898482 4
43.604318 5.6123102 4
43.604318 6.7347723 4
43.604318 7.8572343 4
43.604318 8.9796964 4
43.604318 10.102158 4
43.604318 11.22462 4
43.604318 12.347083 4
43.604318 13.469545 4
43.604318 14.592007 4
43.604318 15.714469 4
43.604318 16.836931 4
43.604318 17.959393 4
43.604318 19.081855 4
43.604318 20.204317 4
43.604318 21.326779 4
43.604318 22.449241 4
43.604318 23.571703 4
43.604318 24.694165 4
43.604318 25.816627 4
43.604318 26.93908 4
43.604318 28.059626 4
44.726782 1.1243872 4
44.72678 2.244934 4
[...]
POINT_DATA 1250
SCALARS m double
LOOKUP_TABLE default
1
1
1
1
1
1
1
1
1
1
1
1
1
1
1
1
1
1
1
1
1
1
1
1
1
1
1
1
1
1
1
1
1
1
1
1
1
1
1
1
1
1
1
1
1
1
1
1
1
1
1
1
1
1
1
1
1
1
1
1
1
1
1
1
1
1
1
1
1
1
1
1
1
1
1
1
1
1
1
1
1
1
1
1
1
1
1
1
1
1
1
1
1
1
1
1
1
1
1
1
1
1
1
1
1
1
1
1
1
1
1
1
1
1
1
1
1
1
1
1
1
1
1
1
1
1
1
1
1
1
1
1
1
1
1
1
1
1
1
1
1
1
1
1
1
1
1
1
1
1
1
1
1
1
1
1
1
1
1
1
1
1
1
1
1
1
1
1
1
1
1
1
1
1
1
1
1
1
1
1
1
1
1
1
1
1
1
1
1
1
1
1
1
1
1
1
1
1
1
1
1
1
1
1
1
1
1
1
1
1
1
1
1
1
1
1
1
1
1
1
1
1
1
1
1
1
1
1
1
1
1
1
1
1
1
1
1
1
1
1
1
1
1
1
1
1
1
1
1
1
1
1
1
1
1
1
1
1
1
1
1
1
1
1
1
1
1
1
1
1
1
1
1
1
1
1
1
1
1
1
1
1
1
1
1
1
1
1
1
1
1
1
1
1
1
1
1
1
1
1
1
1
1
1
1
1
1
1
1
1
1
1
1
1
1
1
1
1
1
1
1
1
1
1
1
1
1
1
1
1
1
1
1
1
1
1
1
1
1
1
1
1
1
1
1
1
1
1
1
1
1
1
1
1
1
1
1
1
1
1
1
1
1
1
1
1
1
1
1
1
1
1
1
1
1
1
1
1
1
1
1
1
1
1
1
1
1
1
1
1
1
1
1
1
1
1
1
1
1
1
1
1
1
1
1
1
1
1
1
1
1
1
1
1
1
1
1
1
1
1
1
1
1
1
1
1
1
1
1
1
1
1
1
1
1
1
1
1
1
1
1
1
1
1
1
1
1
1
1
1
1
1
1
1
1
1
1
1
1
1
1
1
1
1
1
1
1
1
1
1
1
1
1
1
1
1
1
1
1
1
1
1
1
1
1
1
1
1
1
1
1
1
1
1
1
1
1
1
1
1
1
1
1
1
1
1
1
1
1
1
1
1
1
1
1
1
1
1
1
1
1
1
1
1
1
1
1
1
1
1
1
1
1
1
1
1
1
1
1
1
1
1
1
1
1
1
1
1
1
1
1
1
1
1
1
1
1
1
1
1
1
1
1
1
1
1
1
1
1
1
1
1
1
1
1
1
1
1
1
1
1
1
1
1
1
1
1
1
1
1
1
1
1
1
1
1
1
1
1
1
1
1
1
1
1
1
1
1
1
1
1
1
1
1
1
1
1
1
1
1
1
1
1
1
1
1
1
1
1
1
1
1
1
1
1
1
1
1
1
1
1
1
1
1
1
1
1
1
1
1
1
1
1
1
1
1
1
1
1
1
1
1
1
1
1
1
1
1
1
1
1
1
1
1
1
1
1
1
1
1
1
1
1
1
1
1
1
1
1
1
1
1
1
1
1
1
1
1
1
1
1
1
1
1
1
1
1
1
1
1
1
1
1
1
1
1
1
1
1
1
1
1
1
1
1
1
1
1
1
1
1
1
1
1
1
1
1
1
1
1
1
1
1
1
1
1
1
1
1
1
1
1
1
1
1
1
1
1
1
1
1
1
1
1
1
1
1
1
1
1
1
1
1
1
1
1
1
1
1
1
1
1
1
1
1
1
1
1
1
1
1
1
1
1
1
1
1
1
1
1
1
1
1
1
1
1
1
1
1
1
1
1
1
1
1
1
1
1
1
1
1
1
1
1
1
1
1
1
1
1
1
1
1
1
1
1
1
1
1
1
1
1
1
1
1
1
1
1
1
1
1
1
1
1
1
1
1
1
1
1
1
1
1
1
1
1
1
1
1
1
1
1
1
1
1
1
1
1
1
1
1
1
1
1
1
1
1
1
1
1
1
1
1
1
1
1
1
1
1
1
1
1
1
1
1
1
1
1
1
1
1
1
1
1
1
1
1
1
1
1
1
1
1
1
1
1
1
1
1
1
1
1
1
1
1
1
1
1
1
1
1
1
1
1
1
1
1
1
1
1
1
1
1
1
1
1
1
1
1
1
1
1
1
1
1
1
1
1
1
1
1
1
1
1
1
1
1
1
1
1
1
1
1
1
1
1
1
1
1
1
1
1
1
1
1
1
1
1
1
1
1
1
1
1
1
1
1
1
1
1
1
1
1
1
1
1
1
1
1
1
1
1
1
1
1
1
1
1
1
1
1
1
1
1
1
1
1
1
1
1
1
1
1
1
1
1
1
1
1
1
1
1
1
1
1
1
1
1
1
1
1
1
1
1
1
1
1
1
1
1
1
1
1
1
1
1
1
1
1
1
1
1
1
1
1
1
1
1
1
1
1
1
1
1
1
1
1
1
1
1
1
1
1
1
1
1
1
1
1
1
1
1
1
1
1
1
1
1
1
1
1
1
1
1
1
1
1
1
1
1
1
1
1
1
1
1
1
1
1
1
1
1
1
1
1
1
1
1
1
1
1
1
1
1
1
1
1
1
1
1
1
1
1
1
1
1
1
1
1
1
1
1
1
1
1
1
1
1
1
1
1
1
1
1
1
1
1
1
1
1
1
1
1
1
1
1
1
1
1
1
1
1
1
1
1
1
1
1
1
1
1
1
1
1
1
1
1
1
1
1
1
1
1
1
1
1
1
1
1
1
1
1
1
1
1
1
1
1
1
1
1
1
1
1
1
1
1
1
1
1
VECTORS v double
-3.6216605 -9.2097333 0
6.9382474 -6.0317068 0
7.7649274 5.4524953 0
7.9458486 -2.3833905 0
2.2986162 -10.206404 0
4.5635883 -14.106505 0
9.271373 -12.512473 0
6.5422055 -13.289126 0
-3.2914381 -12.620728 0
-1.937479 -11.158423 0
16.697571 -9.0363189 0
-9.0413942 5.5347791 0
-3.8169381 3.4713433 0
6.8829431 -4.3408416 0
1.9516051 8.1172525 0
0.70865125 -12.713398 0
-9.5405182 3.5502133 0
-7.8773493 12.053233 0
-2.9707295 8.8568451 0
-6.9741638 10.167832 0
-7.3402246 -9.1245378 0
-4.8397058 6.6660044 0
6.3581205 -6.5459942 0
-0.39641083 3.1476444 0
-6.5561549 0.65466053 0
8.8420029 -9.0870193 0
-7.5301955 1.8887494 0
-3.0569261 -13.547226 0
5.5344191 8.2361878 0
3.93137 -4.9732517 0
-7.1533435 -9.0062231 0
-7.0070347 -9.1809083 0
-6.3641083 -4.4067874 0
-7.2083984 -8.9864082 0
-3.2560205 -4.0369782 0
0.99789109 4.4857504 0
10.646903 -8.2011366 0
-8.8940393 2.4812278 0
-14.773684 2.2707455 0
5.0739597 -7.809278 0
1.2213295 9.858708 0
-0.25796036 -7.6049468 0
-3.783937 -8.793522 0
-0.41779886 -2.0989697 0
5.5539745 -2.3284251 0
0.30854878 8.9622599 0
8.8713658 -4.9637657 0
-8.4499693 3.6188593 0
1.4681562 13.674374 0
1.3121752 1.1653501 0
-14.860099 -1.101286 0
-2.7557918 -9.3465715 0
-5.8202927 1.2733409 0
5.8996986 6.0842663 0
-7.5218148 -9.1330504 0
5.1267971 -3.6636939 0
12.590483 -2.7971603 0
0.61280458 10.595086 0
-3.2927381 8.9380871 0
-1.3426085 11.827996 0
3.2465425 3.8517056 0
2.0237345 9.2279718 0
-7.3669258 -9.452142 0
-7.1022564 -9.3825485 0
2.1168916 8.4153634 0
7.2532127 -2.8334046 0
12.398085 -10.884601 0
0.33865311 1.2736591 0
3.8013802 -15.778362 0
1.1601921 -0.6401074 0
-5.9435402 -9.5011654 0
2.1999046 -8.9577742 0
-7.7927984 -8.871687 0
-7.4023447 -2.2349708 0
-3.63273 -2.6043491 0
3.9466602 -13.879328 0
-5.0483143 -11.221534 0
-6.5944447 5.1819036 0
-0.9971611 -1.5305292 0
-4.513698 -3.9926737 0
-5.4693696 -7.7326888 0
-7.0944305 -3.0511325 0
-6.0482251 2.2883782 0
-8.8445098 0.093819668 0
3.0519688 -5.3555557 0
-3.7550564 11.212738 0
-2.4336336 -11.318746 0
-13.286943 -0.26343219 0
-0.88422182 11.58293 0
-9.3107152 -6.6370167 0
-4.6215493 -11.35073 0
-4.9202574 -4.5901589 0
0.040963325 -15.378793 0
-2.6440257 -0.26257717 0
3.0984391 -11.035292 0
9.6240462 -11.736728 0
-3.2521652 -11.949615 0
4.0350195 -10.592377 0
-2.140933 0.81867069 0
0.47115582 14.494986 0
3.3338314 -12.573518 0
-8.2541468 -7.4618761 0
6.5316967 2.3470788 0
0.55466594 9.6567598 0
-13.116694 2.8731655 0
7.9731098 1.5871278 0
7.9724605 1.6964645 0
7.9719405 1.5790343 0
7.9722018 1.6309368 0
7.9640843 1.7721915 0
7.9607935 1.9384726 0
7.8795513 0.71175522 0
7.8979254 0.81040783 0
7.8164203 0.44809304 0
7.8200199 0.4562429 0
-10.543925 0.21250637 0
-10.681526 -0.29897411 0
-9.666631 -6.477115 0
-9.4846181 -6.7646798 0
8.1070677 0.10356845 0
8.1046695 0.078667911 0
4.3948383 -14.90371 0
10.619723 -0.47227512 0
1.2455926 5.2012809 0
-11.579774 -2.5031324 0
-9.8559681 -2.1055897 0
-9.7019918 -0.81145159 0
9.3385721 7.1089458 0
8.325693 4.9076632 0
8.3696805 4.9689237 0
8.368356 4.9682483 0
8.3690294 4.9686125 0
8.3682219 4.9681676 0
8.3685418 4.9683448 0
8.3685358 4.9683584 0
8.3699486 4.9689833 0
8.3605843 4.9636904 0
8.3613575 4.9641787 0
8.7792518 4.4040177 0
8.7752024 4.4105425 0
8.5757013 4.8778424 0
8.5758352 4.8777955 0
8.5791329 4.8786451 0
8.5789971 4.8787287 0
8.5468647 4.8279014 0
8.5455306 4.8300221 0
-4.6028749 -10.119196 0
8.5585869 4.9373167 0
-8.0029584 3.6784839 0
-9.954803 1.2028849 0
-6.5275202 8.1688333 0
-7.2151101 -15.117326 0
9.3257872 9.0234781 0
-9.9625609 -0.57210167 0
-9.9856586 -0.62813124 0
-9.9825579 -0.55812132 0
-9.9852374 -0.5594972 0
-9.9842653 -0.55757444 0
-9.9817628 -0.55850374 0
-9.9817641 -0.55650169 0
-10.005696 -0.57466449 0
-9.9883599 -0.53820121 0
-9.9892467 -0.53968636 0
-9.997851 -0.53059778 0
-9.9983005 -0.53817004 0
-7.454809 5.6034786 0
-7.6890519 5.6811884 0
-6.8595619 6.4667346 0
-6.8917537 6.4803723 0
-9.9316293 -0.8912928 0
-2.1141225 1.0414285 0
-9.9228782 -0.83058739 0
-8.4445485 -2.9938634 0
-5.9686441 -10.685114 0
3.5968994 9.5206279 0
7.9373448 -6.5509771 0
1.6221854 3.7046413 0
-12.093559 -4.8023634 0
4.839172 4.8744743 0
-9.922179 -0.51976615 0
-9.9103361 -0.63839932 0
-9.9246722 -0.50198532 0
-9.9185334 -0.56231203 0
-9.9001651 -0.72063776 0
-9.8752239 -0.91372978 0
-9.9735738 0.53286176 0
-9.9728459 0.40838502 0
-9.9672542 0.8585336 0
-9.9675486 0.84652793 0
4.6619002 -3.868083 0
4.8749875 -3.2038647 0
2.8953993 2.3112952 0
2.6413528 2.558742 0
-9.9635269 1.1623704 0
-9.9585489 1.192638 0
-9.9013867 1.186644 0
-7.1623877 4.7613454 0
2.8241313 1.5747091 0
-4.2315517 -2.4229482 0
6.2747598 8.8220167 0
-0.24298404 2.2735164 0
-1.7757708 6.9792053 0
-3.4298688 -7.4281816 0
-7.5078737 -7.3469571 0
-7.4846189 -7.3888551 0
-7.4116491 -7.5121935 0
-7.404298 -7.4824243 0
-7.4049161 -7.481603 0
-7.4045717 -7.4820339 0
-7.4049495 -7.4815594 0
-7.4048082 -7.4817439 0
-7.4048756 -7.4816474 0
-7.4036243 -7.4831949 0
-7.4090148 -7.4763754 0
-7.4082169 -7.4771948 0
-7.6118172 -7.1899844 0
-7.6140562 -7.1869039 0
-7.3428669 -7.5503687 0
-7.3429448 -7.5502567 0
-7.3471928 -7.5449495 0
-7.3475383 -7.5447645 0
-7.3124141 -7.5899835 0
-7.3113782 -7.5857625 0
7.4366252 5.7895617 0
8.7354046 -3.8217442 0
-10.00086 0.0066006086 0
-12.097319 -1.6840578 0
-7.4387775 -3.2100439 0
7.3927726 5.8820069 0
7.4131719 5.864576 0
7.4131822 5.8645926 0
7.4131824 5.8645925 0
7.4131821 5.8645927 0
7.4131822 5.8645927 0
7.4131821 5.8645928 0
7.4131813 5.8645935 0
7.4131973 5.8645789 0
7.4131017 5.8646705 0
7.4132046 5.8645717 0
7.4131995 5.864443 0
7.270058 5.8770181 0
7.2700259 5.876973 0
7.2700257 5.8769727 0
7.2700258 5.8769734 0
7.2700342 5.8770195 0
7.2700328 5.8770225 0
7.2700193 5.8770468 0
7.2697818 5.8747687 0
-8.1409782 -2.6132055 0
-10.008173 -0.031234319 0
-9.970942 0.10243581 0
-10.014984 -0.014092323 0
-10.031962 0.067397703 0
-9.3089871 -1.5051412 0
-10.120345 0.20344991 0
-10.120323 0.20460946 0
-10.120337 0.20465811 0
-10.120329 0.20463724 0
-10.120338 0.20466214 0
-10.120335 0.20465219 0
-10.120335 0.20465243 0
-10.120313 0.20460889 0
-10.120251 0.20492328 0
-10.120279 0.20490169 0
-10.11815 0.20335117 0
-10.118348 0.19320033 0
-10.088865 0.19044483 0
-10.088856 0.19043274 0
-10.088119 0.19039093 0
-10.088122 0.19039538 0
-10.103025 0.19091194 0
-10.103213 0.19102927 0
-9.9166257 0.041426729 0
-10.101362 0.095324251 0
-9.9814512 -0.048859691 0
0.80667189 -12.744429 0
-9.9999837 -0.0037500471 0
-10.000605 0.00094736307 0
2.7825181 10.505701 0
-9.9840227 -0.16679101 0
-9.981205 -0.16983539 0
-9.9812045 -0.16983384 0
-9.9812045 -0.16983386 0
-9.9812045 -0.16983383 0
-9.9812045 -0.16983383 0
-9.9812045 -0.16983383 0
-9.9812046 -0.16983364 0
-9.9812023 -0.16983613 0
-9.9812143 -0.16982473 0
-9.9812024 -0.16983746 0
-9.9807439 -0.1713715 0
-10.06867 0.035335152 0
-10.068651 0.035273609 0
-10.068651 0.035273577 0
-10.068651 0.035272669 0
-10.068622 0.035194119 0
-10.068624 0.035195161 0
-10.068622 0.03515602 0
-10.068109 0.03366432 0
3.4147845 9.9359044 0
-10.001081 0.0055138385 0
-10.000085 -4.5352562e-05 0
-10.00002 9.9335232e-06 0
-10.000156 4.5267293e-05 0
-10.000345 -4.3335513e-05 0
-10.000347 -4.6702271e-05 0
-10.000347 -4.6480667e-05 0
-10.000347 -4.6480718e-05 0
-10.000347 -4.6258804e-05 0
-10.000347 -4.6258817e-05 0
-10.000347 -4.6258817e-05 0
-10.000347 -4.6258085e-05 0
-10.000347 -4.6264521e-05 0
-10.000347 -4.6248604e-05 0
-10.000347 -4.6625509e-05 0
-10.000334 -5.5758858e-05 0
-10.000299 -3.5495031e-05 0
-10.0003 -3.5467333e-05 0
-10.0003 -3.5467205e-05 0
-10.0003 -3.5466016e-05 0
-10.0003 -3.5690045e-05 0
-10.0003 -3.5689813e-05 0
-10.000298 -3.7559956e-05 0
-10.000255 -8.6158241e-05 0
-10.000086 -0.0058560192 0
-10.000005 0.0058444011 0
-10.000002 1.7426837e-05 0
-9.9999997 -1.1352295e-07 0
-10.000001 3.8576542e-07 0
-10.000003 1.9230743e-08 0
-10.000003 6.151011e-08 0
-10.000003 6.1158773e-08 0
-10.000003 6.1158484e-08 0
-10.000003 6.1158628e-08 0
-10.000002 6.1158571e-08 0
-10.000002 6.1146854e-08 0
-10.000002 6.1150448e-08 0
-10.000002 6.1139338e-08 0
-10.000002 6.1186447e-08 0
-10.000002 6.1170598e-08 0
-10.000002 -3.25509e-09 0
-10.000002 5.0026474e-08 0
-10.000002 5.3568791e-08 0
-10.000002 5.357753e-08 0
-10.000002 5.3555592e-08 0
-10.000002 5.3540074e-08 0
-10.000002 5.3798271e-08 0
-10.000002 2.5986462e-07 0
-10.000001 -1.8913011e-05 0
-9.9999998 -0.0058448721 0
-9.9999992 0.0058447959 0
-9.9999992 1.8707207e-05 0
-9.9999991 -2.0634739e-07 0
-9.9999991 -2.2803491e-10 0
-9.9999991 -1.2823299e-11 0
-9.9999991 -7.4598074e-15 0
-9.9999991 -1.3162529e-11 0
-9.9999991 -2.2735827e-11 0
-9.9999991 -1.1607684e-12 0
-9.9999991 8.390898e-12 0
-9.9999991 -2.7295343e-14 0
-9.9999991 -8.2399439e-12 0
-9.9999991 -8.2452997e-12 0
-9.9999991 1.250147e-15 0
-9.9999991 7.8285026e-14 0
-9.9999991 -3.4253021e-12 0
-9.9999991 6.6623089e-13 0
-9.9999991 4.0231691e-12 0
-9.999999 2.7656694e-11 0
-9.999999 2.7671013e-11 0
-9.999999 -1.4016858e-12 0
-9.999999 2.2289742e-10 0
-9.999999 2.0637576e-07 0
-9.999999 -1.8707214e-05 0
-9.999999 -0.005844796 0
-9.999999 0.0058447959 0
-9.999999 1.8707181e-05 0
-9.999999 -2.0638301e-07 0
-9.999999 -2.2722777e-10 0
-9.9999988 -4.9611033e-12 0
-9.9999988 -1.9963481e-12 0
-9.9999988 1.1533656e-14 0
-9.9999988 -1.2238931e-15 0
-9.9999987 -1.0770336e-15 0
-9.9999987 -1.6680686e-14 0
-9.9999987 1.1551419e-11 0
-9.9999987 7.2974319e-12 0
-9.9999986 -5.6856181e-12 0
-9.9999986 -1.9751459e-11 0
-9.9999986 -3.978031e-11 0
-9.9999986 2.2003377e-11 0
-9.9999985 4.3952011e-11 0
-9.9999985 2.1033223e-12 0
-9.9999985 2.1229913e-12 0
-9.9999985 1.5342238e-11 0
-9.9999985 1.4028281e-11 0
-9.9999985 2.2349623e-10 0
-9.9999985 2.0637622e-07 0
-9.9999985 -1.8707188e-05 0
-9.9999984 -0.0058447959 0
-9.9999984 0.0058447959 0
-9.9999984 1.8707189e-05 0
-9.9999984 -2.0638106e-07 0
-9.9999984 -2.1443726e-10 0
-9.9999983 1.5791922e-11 0
-9.9999982 -1.2174951e-11 0
-9.9999982 9.7874254e-13 0
-9.9999982 2.3276753e-11 0
-9.9999982 1.0004229e-11 0
-9.9999982 4.3437475e-13 0
-9.9999982 5.4714342e-13 0
-9.9999982 1.3253441e-11 0
-9.9999981 1.3287943e-11 0
-9.9999981 5.715533e-13 0
-9.999998 -3.9720179e-11 0
-9.9999979 -6.3089365e-11 0
-9.9999982 1.3648766e-10 0
-9.9999982 1.0578708e-10 0
-9.9999982 8.934117e-11 0
-9.9999982 6.9591177e-11 0
-9.9999982 5.9383301e-11 0
-9.9999982 3.0342665e-10 0
-9.9999982 2.0647891e-07 0
-9.9999982 -1.8707059e-05 0
-9.9999981 -0.0058447958 0
-9.9999981 0.0058447959 0
-9.9999981 1.8707824e-05 0
-9.9999981 -2.0628238e-07 0
-9.9999981 -1.2498776e-10 0
-9.9999981 1.0115888e-10 0
-9.9999981 9.2498083e-11 0
-9.999998 8.3591158e-11 0
-9.999998 8.3582858e-11 0
-9.999998 9.0768681e-11 0
-9.999998 9.0757044e-11 0
-9.999998 9.0762762e-11 0
-9.999998 9.5251086e-11 0
-9.9999981 7.7170364e-11 0
-9.9999981 1.1228596e-10 0
-9.9999981 1.5174605e-10 0
-9.9999975 -1.2562478e-09 0
-9.9999975 4.8829259e-07 0
-9.9999975 4.8739563e-07 0
-9.9999975 4.8739216e-07 0
-9.9999974 4.8737229e-07 0
-9.9999974 4.8740661e-07 0
-9.9999973 4.8763396e-07 0
-9.9999973 6.9370135e-07 0
-9.9999971 -1.8219646e-05 0
-9.9999971 -0.0058443072 0
-9.9999898 0.0058447944 0
-9.999997 1.9200827e-05 0
-9.999997 2.8118727e-07 0
-9.999997 4.8734e-07 0
-9.999997 4.8779284e-07 0
-9.9999969 4.8706408e-07 0
-9.9999969 4.8711041e-07 0
-9.9999968 4.8708837e-07 0
-9.9999968 4.8708838e-07 0
-9.9999968 4.8709764e-07 0
-9.9999968 4.8711979e-07 0
-9.9999968 4.8679341e-07 0
-9.9999968 4.8746044e-07 0
-9.9999968 4.8752566e-07 0
-9.9999968 4.8756456e-07 0
-9.9999968 4.8273613e-07 0
-9.9999963 9.786079e-07 0
-9.9999963 9.7382335e-07 0
-9.9999963 9.738271e-07 0
-9.9999963 9.7350948e-07 0
-9.9999957 1.4611724e-06 0
-9.9999957 1.461057e-06 0
-9.9999957 1.6656725e-06 0
-9.9999952 -1.6758055e-05 0
-9.9999951 -0.0058428454 0
-9.9999658 0.0058447876 0
-9.999995 2.0668914e-05 0
-9.9999951 1.7412797e-06 0
-9.9999951 1.9474167e-06 0
-9.9999951 1.9527922e-06 0
-9.9999952 1.4563163e-06 0
-9.9999951 1.4614739e-06 0
-9.9999951 1.461492e-06 0
-9.9999951 1.4614853e-06 0
-9.9999951 1.4614953e-06 0
-9.9999951 1.4614787e-06 0
-9.9999951 1.4549702e-06 0
-9.9999946 1.9541724e-06 0
-9.9999945 1.9498151e-06 0
-9.9999945 1.949782e-06 0
-9.9999945 1.9498653e-06 0
-9.9999945 1.9505465e-06 0
-9.9999944 1.9502254e-06 0
-9.9999944 1.9502267e-06 0
-9.9999944 1.9499962e-06 0
-9.9999938 2.4375182e-06 0
-9.9999937 2.4375079e-06 0
-9.9999936 2.6434346e-06 0
-9.9999936 -1.6269395e-05 0
-9.9999936 -0.0058423515 0
-9.9999574 0.0058447858 0
-9.9999934 2.1172722e-05 0
-9.9999934 2.2313487e-06 0
-9.9999934 2.4374796e-06 0
-9.9999934 2.4378719e-06 0
-9.9999934 2.4371505e-06 0
-9.9999933 2.437387e-06 0
-9.9999933 2.4373148e-06 0
-9.9999932 2.4374479e-06 0
-9.9999932 2.4374679e-06 0
-9.9999932 2.4373659e-06 0
-9.9999931 2.4137177e-06 0
-9.9999858 7.8153188e-06 0
-9.9999858 7.7912968e-06 0
-9.9999858 7.791157e-06 0
-9.9999853 7.7912817e-06 0
-9.9999852 8.278381e-06 0
-9.9999852 8.2783629e-06 0
-9.9999852 8.2772055e-06 0
-9.9999851 8.2796834e-06 0
-9.9999851 8.2798842e-06 0
-9.9999851 8.2800768e-06 0
-9.999985 8.4828447e-06 0
-9.9999845 -9.9372547e-06 0
-9.9999844 -0.0058360141 0
-9.9998529 0.005844757 0
-9.9999843 2.7549852e-05 0
-9.9999837 8.5597783e-06 0
-9.9999837 9.2527066e-06 0
-9.9999831 9.7410291e-06 0
-9.9999831 9.7406528e-06 0
-9.9999831 9.7406804e-06 0
-9.9999832 9.7397337e-06 0
-9.9999826 1.022854e-05 0
-9.9999826 1.0227525e-05 0
-9.9999826 1.0227506e-05 0
-9.9999825 1.0228144e-05 0
-9.9999825 1.0231506e-05 0
-9.9999825 1.022979e-05 0
-9.9999826 1.022867e-05 0
-9.9999821 1.0717923e-05 0
-9.999982 1.0717002e-05 0
-9.999982 1.0716953e-05 0
-9.999982 1.0699801e-05 0
-9.9999774 1.5114758e-05 0
-9.9999773 1.509748e-05 0
-9.9999768 1.5097078e-05 0
-9.9999768 1.5791394e-05 0
-9.9999769 -3.1224586e-06 0
-9.9999762 -0.0058286952 0
-9.999735 0.0058447398 0
-9.9999759 3.488228e-05 0
-9.9999755 1.5864134e-05 0
-9.9999755 1.6559131e-05 0
-9.9999755 1.655488e-05 0
-9.9999744 1.7535411e-05 0
-9.9999743 1.753232e-05 0
-9.9999743 1.7532566e-05 0
-9.9999743 1.7532444e-05 0
-9.9999743 1.7533411e-05 0
-9.9999737 1.7532651e-05 0
-9.9999737 1.8021306e-05 0
-9.9999738 1.8020387e-05 0
-9.9999738 1.8019799e-05 0
-9.9999728 1.8991561e-05 0
-9.9999722 1.9484804e-05 0
-9.9999721 1.9481513e-05 0
-9.999971 1.9968033e-05 0
-9.999971 2.0455496e-05 0
-9.9999711 2.0457365e-05 0
-9.999971 2.0455857e-05 0
-9.999971 2.0456207e-05 0
-9.9999709 2.0663689e-05 0
-9.9999709 1.7503685e-06 0
-9.9999709 -0.0058243009 0
-9.999685 0.0058453077 0
-9.9999956 3.4462646e-05 0
-9.9999946 1.6358506e-05 0
-9.999994 1.7051069e-05 0
-9.9999935 1.7048795e-05 0
-9.9999931 1.7532097e-05 0
-9.9999925 1.8512092e-05 0
-9.9999914 1.9000141e-05 0
-9.9999907 1.9478846e-05 0
-9.9999895 2.0462195e-05 0
-9.9999895 2.0943438e-05 0
-9.9999895 2.0943368e-05 0
-9.9999891 2.0942984e-05 0
-9.999989 2.142618e-05 0
-9.9999884 2.1921269e-05 0
-9.999988 2.1915666e-05 0
-9.9999874 2.2405387e-05 0
-9.9999874 2.289117e-05 0
-9.9999874 2.2891081e-05 0
-9.9999792 2.2890258e-05 0
-9.9999785 2.3865107e-05 0
-9.9999701 2.4349797e-05 0
-9.9999702 2.4554976e-05 0
-9.9999703 5.5769866e-06 0
-9.9999719 -0.0058209751 0
-10.005122 0.0055213395 0
-10.005796 4.4899996e-05 0
-10.005796 2.4199366e-05 0
-10.005795 2.4893941e-05 0
-10.005795 2.538003e-05 0
-10.005795 2.5378377e-05 0
-10.005795 2.5380992e-05 0
-10.005795 2.488866e-05 0
-10.005811 2.4399651e-05 0
-10.005811 2.4399194e-05 0
-10.00581 2.4396358e-05 0
-10.00581 2.5378347e-05 0
-10.00581 2.5374062e-05 0
-10.00581 2.5865154e-05 0
-10.00581 2.586406e-05 0
-10.00581 2.5863736e-05 0
-10.005809 2.5862787e-05 0
-10.005809 2.6352898e-05 0
-10.005809 2.6352545e-05 0
-10.005809 2.6350422e-05 0
-10.005808 2.7334807e-05 0
-10.005808 2.7327145e-05 0
-10.005799 2.8013988e-05 0
-10.0058 7.9139243e-06 0
-10.005476 -0.0054936358 0
9.4934747 -3.9635466 0
-0.77075039 3.3714822 0
-7.875136 -4.5295687 0
6.984051 -11.521457 0
0.51836149 13.996546 0
7.7520878 -1.637381 0
7.0938067 -0.89693825 0
3.7387206 -1.1176098 0
-7.0963113 1.270328 0
2.313604 5.2780619 0
7.2239326 9.582304 0
10.513321 -5.5484809 0
7.3845345 -7.5765569 0
-2.4362579 -8.6840301 0
-3.8458381 1.9249724 0
-3.5020849 13.69264 0
-1.8246666 2.9199008 0
-11.16867 1.8819776 0
-2.4014451 8.7808858 0
-5.6978133 1.7783065 0
1.8699766 -3.8571437 0
-1.8745906 13.375814 0
-8.7391412 11.933535 0
-7.1441831 7.403957 0
-8.2573599 3.6552911 0
9.0256783 -3.4132473 0
-3.50319 6.6238885 0
-1.0037193 -1.1045132 0
-3.7355925 -1.7645474 0
-12.870511 7.72509 0
-2.0403335 7.6488897 0
2.6652599 5.1535967 0
1.2431256 -2.5125343 0
1.2692769 12.877084 0
-8.2122745 -7.3319873 0
8.6794607 -1.4801883 0
1.9831994 -1.2220616 0
-8.12828 5.6284412 0
2.6029122 -3.7041827 0
-7.1486206 10.260312 0
2.1147591 11.714052 0
2.7451949 0.50937697 0
12.71743 -2.1030744 0
1.298718 0.4750722 0
8.5344305 4.751231 0
6.4174397 13.150432 0
-1.5778032 -3.7864179 0
1.2581081 0.30055029 0
-8.6099819 -3.8990827 0
-0.12082649 9.3407344 0
8.0765081 -4.2742594 0
1.7929539 1.7404948 0
10.721908 4.590661 0
-2.1382847 -3.864913 0
-9.9657808 5.6761362 0
-8.5990261 9.4212637 0
-8.876081 3.9308576 0
12.458705 6.7987945 0
7.5671332 8.6318136 0
-7.7255627 1.98935 0
7.3614932 9.2397381 0
7.7749844 6.8772919 0
1.7061824 -7.9450873 0
7.2035721 -5.1024035 0
7.9393256 7.6800305 0
10.018176 -4.3351489 0
-6.3367165 11.454211 0
5.4263631 3.5400815 0
-2.2989634 3.7589945 0
-1.4965886 -5.9594081 0
9.5647194 -5.4810361 0
13.683377 -1.4294207 0
-3.3800348 -8.1902587 0
5.1317418 -3.6954966 0