# vtk DataFile Version 4.0
hesp visualization file
ASCII
DATASET UNSTRUCTURED_GRID
POINTS 1250 double
30.653344 1.1231565 4
30.503262 2.2447876 4
30.463442 3.3673423 4
30.463442 4.4898081 4
30.463442 5.6122704 4
30.463442 6.7347324 4
30.463442 7.8571945 4
30.463442 8.9796564 4
30.463442 10.102119 4
30.463442 11.224581 4
30.463442 12.347043 4
30.463441 13.469504 4
30.46344 14.591966 4
30.463442 15.714428 4
30.46344 16.83689 4
30.46344 17.959363 4
30.463439 19.081825 4
30.463439 20.204287 4
30.463439 21.326749 4
30.463439 22.449208 4
30.463439 23.57167 4
30.463439 24.694133 4
30.463439 25.816594 4
30.463439 26.939052 4
30.463434 28.061172 4
30.871494 1.1224465 4
30.865022 2.2449694 4
30.86313 3.3674004 4
30.86313 4.489859 4
30.86313 5.612321 4
30.86313 6.7347831 4
30.86313 7.8572451 4
30.86313 8.9797072 4
30.86313 10.102169 4
30.86313 11.224631 4
30.86313 12.347093 4
30.86313 13.469555 4
30.86313 14.592017 4
30.86313 15.714479 4
30.86313 16.836942 4
30.86313 17.959404 4
30.86313 19.081866 4
30.86313 20.204328 4
30.86313 21.32679 4
30.86313 22.449252 4
30.86313 23.571714 4
30.86313 24.694176 4
30.86313 25.816638 4
30.86313 26.939102 4
30.863133 28.061437 4
31.936672 1.122872 4
31.935861 2.2448941 4
31.78985 3.3673756 4
31.789848 4.489841 4
31.789848 5.6123031 4
31.789848 6.7347652 4
31.789848 7.8572272 4
31.789848 8.9796893 4
31.789848 10.102151 4
31.789848 11.224613 4
31.789848 12.347075 4
31.789848 13.469537 4
31.789848 14.592 4
31.789848 15.714462 4
31.789848 16.836924 4
31.789848 17.959385 4
31.789848 19.081847 4
31.789848 20.204309 4
31.789848 21.326771 4
31.789848 22.449234 4
31.789848 23.571696 4
31.789848 24.694158 4
31.789848 25.81662 4
31.789848 26.939078 4
31.789849 28.061223 4
32.190114 1.1226966 4
32.190081 2.2449252 4
32.189722 3.3673857 4
32.189722 4.4898482 4
32.189722 5.6123102 4
32.189722 6.7347723 4
32.189722 7.8572343 4
32.189722 8.9796964 4
32.189722 10.102158 4
32.189722 11.22462 4
32.189722 12.347083 4
32.189722 13.469545 4
32.189722 14.592007 4
32.189722 15.714469 4
32.189722 16.836931 4
32.189722 17.959393 4
32.189722 19.081855 4
32.189722 20.204317 4
32.189722 21.326779 4
32.189722 22.449241 4
32.189722 23.571703 4
32.189722 24.694165 4
32.189722 25.816627 4
32.189722 26.939088 4
32.189723 28.061317 4
33.31231 1.1226955 4
33.31231 2.2449256 4
33.31231 3.3673861 4
33.31231 4.4898482 4
33.31231 5.6123102 4
33.31231 6.7347723 4
33.31231 7.8572343 4
33.31231 8.9796964 4
33.31231 10.102158 4
33.31231 11.22462 4
33.31231 12.347083 4
33.31231 13.469545 4
33.31231 14.592007 4
33.31231 15.714469 4
33.31231 16.836931 4
33.31231 17.959393 4
33.31231 19.081855 4
33.31231 20.204317 4
33.31231 21.326779 4
33.31231 22.449241 4
33.31231 23.571703 4
33.31231 24.694165 4
33.31231 25.816627 4
33.31231 26.939088 4
33.31231 28.061318 4
34.434772 1.1226955 4
34.434772 2.2449257 4
34.434772 3.3673861 4
34.434772 4.4898482 4
34.434772 5.6123102 4
34.434772 6.7347723 4
34.434772 7.8572343 4
34.434772 8.9796964 4
34.434772 10.102158 4
34.434772 11.22462 4
34.434772 12.347083 4
34.434772 13.469545 4
34.434772 14.592007 4
34.434772 15.714469 4
34.434772 16.836931 4
34.434772 17.959393 4
34.434772 19.081855 4
34.434772 20.204317 4
34.434772 21.326779 4
34.434772 22.449241 4
34.434772 23.571703 4
34.434772 24.694165 4
34.434772 25.816627 4
34.434772 26.939088 4
34.434772 28.061318 4
35.557234 1.1226955 4
35.557234 2.2449257 4
35.557234 3.3673861 4
35.557234 4.4898482 4
35.557234 5.6123102 4
35.557234 6.7347723 4
35.557234 7.8572343 4
35.557234 8.9796964 4
35.557234 10.102158 4
35.557234 11.22462 4
35.557234 12.347083 4
35.557234 13.469545 4
35.557234 14.592007 4
35.557234 15.714469 4
35.557234 16.836931 4
35.557234 17.959393 4
35.557234 19.081855 4
35.557234 20.204317 4
35.557234 21.326779 4
35.557234 22.449241 4
35.557234 23.571703 4
35.557234 24.694165 4
35.557234 25.816627 4
35.557234 26.939088 4
35.557234 28.061318 4
36.679696 1.1226955 4
36.679696 2.2449257 4
36.679696 3.3673861 4
36.679696 4.4898482 4
36.679696 5.6123102 4
36.679696 6.7347723 4
36.679696 7.8572343 4
36.679696 8.9796964 4
36.679696 10.102158 4
36.679696 11.22462 4
36.679696 12.347083 4
36.679696 13.469545 4
36.679696 14.592007 4
36.679696 15.714469 4
36.679696 16.836931 4
36.679696 17.959393 4
36.679696 19.081855 4
36.679696 20.204317 4
36.679696 21.326779 4
36.679696 22.449241 4
36.679696 23.571703 4
36.679696 24.694165 4
36.679696 25.816627 4
36.679696 26.939088 4
36.679696 28.061318 4
37.802158 1.1226955 4
37.802158 2.2449257 4
37.802158 3.3673861 4
37.802158 4.4898482 4
37.802158 5.6123102 4
37.802158 6.7347723 4
37.802158 7.8572343 4
37.802158 8.9796964 4
37.802158 10.102158 4
37.802158 11.22462 4
37.802158 12.347083 4
37.802158 13.469545 4
37.802158 14.592007 4
37.802158 15.714469 4
37.802158 16.836931 4
37.802158 17.959393 4
37.802158 19.081855 4
37.802158 20.204317 4
37.802158 21.326779 4
37.802158 22.449241 4
37.802158 23.571703 4
37.802158 24.694165 4
37.802158 25.816627 4
37.802158 26.939088 4
37.802158 28.061318 4
38.92462 1.1226955 4
38.92462 2.2449257 4
38.92462 3.3673861 4
38.92462 4.4898482 4
38.92462 5.6123102 4
38.92462 6.7347723 4
38.92462 7.8572343 4
38.92462 8.9796964 4
38.92462 10.102158 4
38.92462 11.22462 4
38.92462 12.347083 4
38.92462 13.469545 4
38.92462 14.592007 4
38.92462 15.714469 4
38.92462 16.836931 4
38.92462 17.959393 4
38.92462 19.081855 4
38.92462 20.204317 4
38.92462 21.326779 4
38.92462 22.449241 4
38.92462 23.571703 4
38.92462 24.694165 4
38.92462 25.816627 4
38.92462 26.939088 4
38.92462 28.061318 4
40.047083 1.1226955 4
40.047083 2.2449257 4
40.047083 3.3673861 4
40.047083 4.4898482 4
40.047083 5.6123102 4
40.047083 6.7347723 4
40.047083 7.8572343 4
40.047083 8.9796964 4
40.047083 10.102158 4
40.047083 11.22462 4
40.047083 12.347083 4
40.047083 13.469545 4
40.047083 14.592007 4
40.047083 15.714469 4
40.047083 16.836931 4
40.047083 17.959393 4
40.047083 19.081855 4
40.047083 20.204317 4
40.047083 21.326779 4
40.047083 22.449241 4
40.047083 23.571703 4
40.047083 24.694165 4
40.047083 25.816627 4
40.047083 26.939088 4
40.047083 28.061318 4
41.169545 1.1226955 4
41.169545 2.2449257 4
41.169545 3.3673861 4
41.169545 4.4898482 4
41.169545 5.6123102 4
41.169545 6.7347723 4
41.169545 7.8572343 4
41.169545 8.9796964 4
41.169545 10.102158 4
41.169545 11.22462 4
41.169545 12.347083 4
41.169545 13.469545 4
41.169545 14.592007 4
41.169545 15.714469 4
41.169545 16.836931 4
41.169545 17.959393 4
41.169545 19.081855 4
41.169545 20.204317 4
41.169545 21.326779 4
41.169545 22.449241 4
41.169545 23.571703 4
41.169545 24.694165 4
41.169545 25.816627 4
41.169545 26.939088 4
41.169545 28.061318 4
42.292007 1.1226955 4
42.292007 2.2449257 4
42.292007 3.3673861 4
42.292007 4.4898482 4
42.292007 5.6123102 4
42.292007 6.7347723 4
42.292007 7.8572343 4
42.292007 8.9796964 4
42.292007 10.102158 4
42.292007 11.22462 4
42.292007 12.347083 4
42.292007 13.469545 4
42.292007 14.592007 4
42.292007 15.714469 4
42.292007 16.836931 4
42.292007 17.959393 4
42.292007 19.081855 4
42.292007 20.204317 4
42.292007 21.326779 4
42.292007 22.449241 4
42.292007 23.571703 4
42.292007 24.694165 4
42.292007 25.816627 4
42.292007 26.939088 4
42.292007 28.061318 4
43.414469 1.1226955 4
43.414469 2.2449257 4
43.414469 3.3673861 4
43.414469 4.4898482 4
43.414469 5.6123102 4
43.414469 6.7347723 4
43.414469 7.8572343 4
43.414469 8.9796964 4
43.414469 10.102158 4
43.414469 11.22462 4
43.414469 12.347083 4
43.414469 13.469545 4
43.414469 14.592007 4
43.414469 15.714469 4
43.414469 16.836931 4
43.414469 17.959393 4
43.414469 19.081855 4
43.414469 20.204317 4
43.414469 21.326779 4
43.414469 22.449241 4
43.414469 23.571703 4
43.414469 24.694165 4
43.414469 25.816627 4
43.414469 26.939088 4
43.414469 28.061318 4
44.536931 1.1226955 4
44.536931 2.2449257 4
44.536931 3.3673861 4
44.536931 4.4898482 4
44.536931 5.6123102 4
44.536931 6.7347723 4
44.536931 7.8572343 4
44.536931 8.9796964 4
44.536931 10.102158 4
44.536931 11.22462 4
44.536931 12.347083 4
44.536931 13.469545 4
44.536931 14.592007 4
44.536931 15.714469 4
44.536931 16.836931 4
44.536931 17.959393 4
44.536931 19.081855 4
44.536931 20.204317 4
44.536931 21.326779 4
44.536931 22.449241 4
44.536931 23.571703 4
44.536931 24.694165 4
44.536931 25.816627 4
44.536931 26.939088 4
44.536931 28.061318 4
45.659393 1.1226955 4
45.659393 2.2449257 4
45.659393 3.3673861 4
45.659393 4.4898482 4
45.659393 5.6123102 4
45.659393 6.7347723 4
45.659393 7.8572343 4
45.659393 8.9796964 4
45.659393 10.102158 4
45.659393 11.22462 4
45.659393 12.347083 4
45.659393 13.469545 4
45.659393 14.592007 4
45.659393 15.714469 4
45.659393 16.836931 4
45.659393 17.959393 4
45.659393 19.081855 4
45.659393 20.204317 4
45.659393 21.326779 4
45.659393 22.449241 4
45.659393 23.571703 4
45.659393 24.694165 4
45.659393 25.816627 4
45.659393 26.939088 4
45.659393 28.061318 4
46.781855 1.1226955 4
46.781855 2.2449257 4
46.781855 3.3673861 4
46.781855 4.4898482 4
46.781855 5.6123102 4
46.781855 6.7347723 4
46.781855 7.8572343 4
46.781855 8.9796964 4
46.781855 10.102158 4
46.781855 11.22462 4
46.781855 12.347083 4
46.781855 13.469545 4
46.781855 14.592007 4
46.781855 15.714469 4
46.781855 16.836931 4
46.781855 17.959393 4
46.781855 19.081855 4
46.781855 20.204317 4
46.781855 21.326779 4
46.781855 22.449241 4
46.781855 23.571703 4
46.781855 24.694165 4
46.781855 25.816627 4
46.781855 26.939088 4
46.781855 28.061318 4
47.904317 1.1226955 4
47.904317 2.2449257 4
47.904317 3.3673861 4
47.904317 4.4898482 4
47.904317 5.6123102 4
47.904317 6.7347723 4
47.904317 7.8572343 4
47.904317 8.9796964 4
47.904317 10.102158 4
47.904317 11.22462 4
47.904317 12.347083 4
47.904317 13.469545 4
47.904317 14.592007 4
47.904317 15.714469 4
47.904317 16.836931 4
47.904317 17.959393 4
47.904317 19.081855 4
47.904317 20.204317 4
47.904317 21.326779 4
47.904317 22.449241 4
47.904317 23.571703 4
47.904317 24.694165 4
47.904317 25.816627 4
47.904317 26.939088 4
47.904317 28.061318 4
49.026779 1.1226955 4
49.026779 2.2449257 4
49.026779 3.3673861 4
49.026779 4.4898482 4
[...]
POINT_DATA 1250
SCALARS m double
LOOKUP_TABLE default
1
1
1
1
1
1
1
1
1
1
1
1
1
1
1
1
1
1
1
1
1
1
1
1
1
1
1
1
1
1
1
1
1
1
1
1
1
1
1
1
1
1
1
1
1
1
1
1
1
1
1
1
1
1
1
1
1
1
1
1
1
1
1
1
1
1
1
1
1
1
1
1
1
1
1
1
1
1
1
1
1
1
1
1
1
1
1
1
1
1
1
1
1
1
1
1
1
1
1
1
1
1
1
1
1
1
1
1
1
1
1
1
1
1
1
1
1
1
1
1
1
1
1
1
1
1
1
1
1
1
1
1
1
1
1
1
1
1
1
1
1
1
1
1
1
1
1
1
1
1
1
1
1
1
1
1
1
1
1
1
1
1
1
1
1
1
1
1
1
1
1
1
1
1
1
1
1
1
1
1
1
1
1
1
1
1
1
1
1
1
1
1
1
1
1
1
1
1
1
1
1
1
1
1
1
1
1
1
1
1
1
1
1
1
1
1
1
1
1
1
1
1
1
1
1
1
1
1
1
1
1
1
1
1
1
1
1
1
1
1
1
1
1
1
1
1
1
1
1
1
1
1
1
1
1
1
1
1
1
1
1
1
1
1
1
1
1
1
1
1
1
1
1
1
1
1
1
1
1
1
1
1
1
1
1
1
1
1
1
1
1
1
1
1
1
1
1
1
1
1
1
1
1
1
1
1
1
1
1
1
1
1
1
1
1
1
1
1
1
1
1
1
1
1
1
1
1
1
1
1
1
1
1
1
1
1
1
1
1
1
1
1
1
1
1
1
1
1
1
1
1
1
1
1
1
1
1
1
1
1
1
1
1
1
1
1
1
1
1
1
1
1
1
1
1
1
1
1
1
1
1
1
1
1
1
1
1
1
1
1
1
1
1
1
1
1
1
1
1
1
1
1
1
1
1
1
1
1
1
1
1
1
1
1
1
1
1
1
1
1
1
1
1
1
1
1
1
1
1
1
1
1
1
1
1
1
1
1
1
1
1
1
1
1
1
1
1
1
1
1
1
1
1
1
1
1
1
1
1
1
1
1
1
1
1
1
1
1
1
1
1
1
1
1
1
1
1
1
1
1
1
1
1
1
1
1
1
1
1
1
1
1
1
1
1
1
1
1
1
1
1
1
1
1
1
1
1
1
1
1
1
1
1
1
1
1
1
1
1
1
1
1
1
1
1
1
1
1
1
1
1
1
1
1
1
1
1
1
1
1
1
1
1
1
1
1
1
1
1
1
1
1
1
1
1
1
1
1
1
1
1
1
1
1
1
1
1
1
1
1
1
1
1
1
1
1
1
1
1
1
1
1
1
1
1
1
1
1
1
1
1
1
1
1
1
1
1
1
1
1
1
1
1
1
1
1
1
1
1
1
1
1
1
1
1
1
1
1
1
1
1
1
1
1
1
1
1
1
1
1
1
1
1
1
1
1
1
1
1
1
1
1
1
1
1
1
1
1
1
1
1
1
1
1
1
1
1
1
1
1
1
1
1
1
1
1
1
1
1
1
1
1
1
1
1
1
1
1
1
1
1
1
1
1
1
1
1
1
1
1
1
1
1
1
1
1
1
1
1
1
1
1
1
1
1
1
1
1
1
1
1
1
1
1
1
1
1
1
1
1
1
1
1
1
1
1
1
1
1
1
1
1
1
1
1
1
1
1
1
1
1
1
1
1
1
1
1
1
1
1
1
1
1
1
1
1
1
1
1
1
1
1
1
1
1
1
1
1
1
1
1
1
1
1
1
1
1
1
1
1
1
1
1
1
1
1
1
1
1
1
1
1
1
1
1
1
1
1
1
1
1
1
1
1
1
1
1
1
1
1
1
1
1
1
1
1
1
1
1
1
1
1
1
1
1
1
1
1
1
1
1
1
1
1
1
1
1
1
1
1
1
1
1
1
1
1
1
1
1
1
1
1
1
1
1
1
1
1
1
1
1
1
1
1
1
1
1
1
1
1
1
1
1
1
1
1
1
1
1
1
1
1
1
1
1
1
1
1
1
1
1
1
1
1
1
1
1
1
1
1
1
1
1
1
1
1
1
1
1
1
1
1
1
1
1
1
1
1
1
1
1
1
1
1
1
1
1
1
1
1
1
1
1
1
1
1
1
1
1
1
1
1
1
1
1
1
1
1
1
1
1
1
1
1
1
1
1
1
1
1
1
1
1
1
1
1
1
1
1
1
1
1
1
1
1
1
1
1
1
1
1
1
1
1
1
1
1
1
1
1
1
1
1
1
1
1
1
1
1
1
1
1
1
1
1
1
1
1
1
1
1
1
1
1
1
1
1
1
1
1
1
1
1
1
1
1
1
1
1
1
1
1
1
1
1
1
1
1
1
1
1
1
1
1
1
1
1
1
1
1
1
1
1
1
1
1
1
1
1
1
1
1
1
1
1
1
1
1
1
1
1
1
1
1
1
1
1
1
1
1
1
1
1
1
1
1
1
1
1
1
1
1
1
1
1
1
1
1
1
1
1
1
1
1
1
1
1
1
1
1
1
1
1
1
1
1
1
1
1
1
1
1
1
1
1
1
1
1
1
1
1
1
1
1
1
1
1
1
1
1
1
1
1
1
1
1
1
1
1
1
1
1
1
1
1
1
1
1
1
1
1
1
1
1
1
1
1
1
1
1
1
1
1
1
1
1
1
1
1
1
1
1
1
1
1
1
1
1
1
1
1
1
1
1
1
1
1
1
1
1
1
1
1
1
1
1
1
1
1
1
1
1
1
1
1
1
1
1
1
1
1
1
1
1
1
1
1
1
1
1
1
1
1
1
1
1
1
1
1
1
1
1
1
1
1
1
1
1
1
1
VECTORS v double
5.6682532 0.04066599 0
10.94124 -0.0034399662 0
10.030455 -0.0010821237 0
10.030465 -0.0010270565 0
10.030464 -0.00102162 0
10.030464 -0.0010246183 0
10.030464 -0.0010231292 0
10.030464 -0.0010249204 0
10.030464 -0.0010242043 0
10.030464 -0.0010242048 0
10.030464 -0.0010212579 0
10.030459 -0.0010427965 0
10.030449 -0.0010408183 0
10.030459 -0.0010497267 0
10.030449 -0.0010491093 0
10.030449 -0.00074808372 0
10.030447 -0.00074808975 0
10.030446 -0.00074468645 0
10.030446 -0.00074459636 0
10.030446 -0.00081560167 0
10.030446 -0.00081560073 0
10.030446 -0.00081559578 0
10.030446 -0.00082623748 0
10.030442 -0.00086624955 0
10.030392 -0.0042831583 0
-0.38401485 -0.031505849 0
-10.041233 0.00089636236 0
-10.030234 0.00033962161 0
-10.030227 0.00024126833 0
-10.030227 0.0002401678 0
-10.030227 0.0002401617 0
-10.030227 0.00024016472 0
-10.030227 0.00024016113 0
-10.030227 0.00024016258 0
-10.030227 0.00024016255 0
-10.030227 0.00024016861 0
-10.030227 0.0002401241 0
-10.030226 0.00024013405 0
-10.030227 0.00024011032 0
-10.030226 0.0002401032 0
-10.030226 0.00025127764 0
-10.030226 0.00025127404 0
-10.030226 0.00025128092 0
-10.030226 0.00025128167 0
-10.030226 0.00025113735 0
-10.030226 0.00025113794 0
-10.030226 0.00025113689 0
-10.030226 0.00025111685 0
-10.030225 0.00030410965 0
-10.030175 0.00055660884 0
10.155302 0.0071077683 0
10.197114 -0.00087864142 0
10.029258 -0.0002722375 0
10.029206 -0.00019873471 0
10.029206 -0.00019770584 0
10.029206 -0.00019770586 0
10.029206 -0.00019770586 0
10.029206 -0.00019770587 0
10.029206 -0.00019770586 0
10.029206 -0.00019770587 0
10.029206 -0.00019770592 0
10.029206 -0.00019770525 0
10.029206 -0.00019770938 0
10.029206 -0.00019770483 0
10.029206 -0.00019770055 0
10.029206 -0.00020632737 0
10.029206 -0.00020632675 0
10.029206 -0.00020632674 0
10.029206 -0.00020632675 0
10.029206 -0.00020632542 0
10.029206 -0.00020632542 0
10.029206 -0.00020632444 0
10.029206 -0.00020630112 0
10.029205 -0.00028214864 0
10.029223 -0.0046974202 0
-8.9480588 0.0014336475 0
-8.9976812 9.8633648e-05 0
-10.029218 -3.4273967e-05 0
-10.02921 -7.0305905e-07 0
-10.02921 -3.9277451e-07 0
-10.02921 -3.9279802e-07 0
-10.02921 -3.92798e-07 0
-10.02921 -3.9279803e-07 0
-10.02921 -3.9279794e-07 0
-10.02921 -3.9279806e-07 0
-10.02921 -3.9279846e-07 0
-10.02921 -3.9280198e-07 0
-10.02921 -3.9280435e-07 0
-10.02921 -3.9279628e-07 0
-10.02921 -3.9274266e-07 0
-10.02921 -4.0999613e-07 0
-10.02921 -4.0991958e-07 0
-10.02921 -4.0991795e-07 0
-10.02921 -4.0991659e-07 0
-10.02921 -4.0991841e-07 0
-10.02921 -4.099171e-07 0
-10.02921 -4.0988333e-07 0
-10.02921 -3.9835567e-07 0
-10.029209 -1.4956194e-05 0
-10.029169 -0.0021057746 0
-10.000022 0.0020328165 0
-10.000025 1.2123483e-05 0
-10.000016 -9.7856518e-07 0
-10.000015 -1.238351e-11 0
-10.000015 -7.5107407e-12 0
-10.000015 -7.8162539e-12 0
-10.000015 -7.8162499e-12 0
-10.000015 -7.8168364e-12 0
-10.000015 -7.8148892e-12 0
-10.000015 -7.8174252e-12 0
-10.000015 -7.8162756e-12 0
-10.000015 -7.8140014e-12 0
-10.000015 -7.8193134e-12 0
-10.000015 -7.8161268e-12 0
-10.000015 -7.6718946e-12 0
-10.000015 -8.9329412e-12 0
-10.000015 -8.1581193e-12 0
-10.000015 -8.1567315e-12 0
-10.000015 -8.1567586e-12 0
-10.000015 -8.1557572e-12 0
-10.000015 -8.1658408e-12 0
-10.000015 1.3528942e-11 0
-10.000015 9.5910054e-09 0
-10.000015 -1.3100217e-05 0
-10.000012 -0.0020318457 0
-10 0.0020301789 0
-10 1.3100801e-05 0
-10 -9.5920801e-09 0
-10 -2.1177686e-11 0
-10 7.8672593e-15 0
-10 -1.0520723e-16 0
-10 -1.0957727e-16 0
-10 -6.8791645e-16 0
-10 1.2563473e-15 0
-10 -1.2817455e-15 0
-10 -1.2752255e-16 0
-10 1.0296773e-15 0
-10 -1.2750572e-15 0
-10 -1.5685394e-16 0
-10 -8.3681367e-17 0
-10 1.101862e-15 0
-10 -1.328064e-15 0
-10 -1.1659098e-16 0
-10 -6.5289493e-17 0
-10 1.0117282e-15 0
-10 -8.9519231e-15 0
-10 2.1687278e-11 0
-10 9.5928509e-09 0
-10 -1.3100801e-05 0
-10 -0.0020301788 0
-10 0.0020301789 0
-10 1.3100801e-05 0
-10 -9.592855e-09 0
-10 -2.1687732e-11 0
-10 7.9851737e-15 0
-10 2.7428619e-18 0
-10 -1.7472371e-18 0
-10 -5.8020971e-16 0
-10 1.3641654e-15 0
-10 -1.1742763e-15 0
-10 -1.9714828e-17 0
-10 1.1374241e-15 0
-10 -1.1674932e-15 0
-10 -4.9028463e-17 0
-10 2.3544299e-17 0
-10 1.214124e-15 0
-10 -1.2157581e-15 0
-10 -4.2057876e-18 0
-10 4.7005352e-17 0
-10 1.1240447e-15 0
-10 -8.8394538e-15 0
-10 2.1687391e-11 0
-10 9.5928513e-09 0
-10 -1.3100801e-05 0
-10 -0.0020301789 0
-10 0.0020301789 0
-10 1.3100801e-05 0
-10 -9.5928516e-09 0
-10 -2.1687731e-11 0
-10 7.9851694e-15 0
-10 2.8109537e-18 0
-10 -1.7360195e-18 0
-10 -5.8023537e-16 0
-10 1.3641558e-15 0
-10 -1.1742591e-15 0
-10 -1.9582389e-17 0
-10 1.1375718e-15 0
-10 -1.1674591e-15 0
-10 -4.9114733e-17 0
-10 2.3316743e-17 0
-10 1.2140799e-15 0
-10 -1.215725e-15 0
-10 -4.1962114e-18 0
-10 4.6974816e-17 0
-10 1.1241224e-15 0
-10 -8.8392935e-15 0
-10 2.1687391e-11 0
-10 9.5928513e-09 0
-10 -1.3100801e-05 0
-10 -0.0020301789 0
-10 0.0020301789 0
-10 1.3100801e-05 0
-10 -9.5928516e-09 0
-10 -2.1687731e-11 0
-10 7.9851171e-15 0
-10 2.6916853e-18 0
-10 -1.7279948e-18 0
-10 -5.8029736e-16 0
-10 1.3640655e-15 0
-10 -1.1741672e-15 0
-10 -1.9703422e-17 0
-10 1.1373328e-15 0
-10 -1.1673693e-15 0
-10 -4.9102917e-17 0
-10 2.3351065e-17 0
-10 1.2140931e-15 0
-10 -1.2156894e-15 0
-10 -4.1972752e-18 0
-10 4.6987749e-17 0
-10 1.1240732e-15 0
-10 -8.8394219e-15 0
-10 2.1687392e-11 0
-10 9.5928513e-09 0
-10 -1.3100801e-05 0
-10 -0.0020301789 0
-10 0.0020301789 0
-10 1.3100801e-05 0
-10 -9.5928516e-09 0
-10 -2.1687336e-11 0
-10 8.3987106e-15 0
-10 2.0592399e-17 0
-10 -1.8121561e-18 0
-10 -5.8075067e-16 0
-10 1.3640787e-15 0
-10 -1.174147e-15 0
-10 -2.0189385e-17 0
-10 1.136673e-15 0
-10 -1.1684108e-15 0
-10 -4.8420824e-17 0
-10 2.3897803e-17 0
-10 1.2145707e-15 0
-10 -1.2158586e-15 0
-10 -4.1984753e-18 0
-10 4.7146178e-17 0
-10 1.1235648e-15 0
-10 -8.8398379e-15 0
-10 2.168739e-11 0
-10 9.5928513e-09 0
-10 -1.3100801e-05 0
-10 -0.0020301789 0
-10 0.0020301789 0
-10 1.3100801e-05 0
-10 -9.5928512e-09 0
-10 -2.3887655e-11 0
-10 -2.1917544e-12 0
-10 2.5524965e-16 0
-10 -4.1495059e-19 0
-10 -5.7954152e-16 0
-10 1.3640795e-15 0
-10 -1.1740087e-15 0
-10 -1.9183794e-17 0
-10 1.1382119e-15 0
-10 -1.1659476e-15 0
-10 -5.0275956e-17 0
-10 2.2940625e-17 0
-10 1.2134985e-15 0
-10 -1.215749e-15 0
-10 -4.1997998e-18 0
-10 4.7065965e-17 0
-10 1.1244364e-15 0
-10 -8.8390795e-15 0
-10 2.1687393e-11 0
-10 9.5928513e-09 0
-10 -1.3100801e-05 0
-10 -0.0020301788 0
-10 0.0020301788 0
-10 1.3100801e-05 0
-10 -9.5928514e-09 0
-10 -2.1687812e-11 0
-9.9999999 7.8921276e-15 0
-9.9999999 2.5862231e-18 0
-9.9999999 -1.5894009e-18 0
-9.9999999 -5.7945551e-16 0
-9.9999999 1.3638763e-15 0
-9.9999999 -1.1739412e-15 0
-9.9999999 -1.9208239e-17 0
-9.9999999 1.1380982e-15 0
-9.9999999 -1.1656612e-15 0
-9.9999999 -5.0651852e-17 0
-9.9999999 2.3055166e-17 0
-9.9999999 1.2151166e-15 0
-9.9999999 -1.1317007e-15 0
-9.9999999 8.1814809e-17 0
-9.9999999 9.7618701e-17 0
-9.9999999 1.1721947e-15 0
-9.9999999 -8.8384454e-15 0
-9.9999999 2.1687393e-11 0
-9.9999999 9.5928513e-09 0
-9.9999999 -1.3100801e-05 0
-9.9999999 -0.0020301788 0
-9.9999999 0.0020301788 0
-9.9999999 1.31008e-05 0
-9.9999999 -9.594188e-09 0
-9.9999999 -1.9487731e-11 0
-9.9999999 2.2077272e-12 0
-9.9999999 -2.7053181e-16 0
-9.9999999 -3.0659075e-18 0
-9.9999999 -5.8070847e-16 0
-9.9999999 1.3646367e-15 0
-9.9999999 -1.1742705e-15 0
-9.9999999 -1.9334574e-17 0
-9.9999999 1.1378758e-15 0
-9.9999999 -1.1684321e-15 0
-9.9999999 -4.799233e-17 0
-9.9999999 2.3419885e-17 0
-9.9999999 1.2058268e-15 0
-9.9999999 -1.0369568e-12 0
-9.9999999 -1.0357556e-12 0
-9.9999999 -8.5879918e-13 0
-9.9999999 -8.5768969e-13 0
-9.9999999 -8.8247629e-15 0
-9.9999999 2.168739e-11 0
-9.9999999 9.5928513e-09 0
-9.9999999 -1.3100801e-05 0
-9.9999999 -0.0020301788 0
-9.9999999 0.0020301788 0
-9.9999999 1.3100801e-05 0
-9.9999999 -9.5927792e-09 0
-9.9999999 -2.168804e-11 0
-9.9999999 7.6672926e-15 0
-9.9999999 -1.6091085e-17 0
-9.9999999 3.392175e-18 0
-9.9999999 -5.7654308e-16 0
-9.9999999 1.2538608e-15 0
-9.9999999 -1.2876855e-15 0
-9.9999999 -7.2356857e-14 0
-9.9999999 -7.1195749e-14 0
-9.9999999 -1.1674905e-15 0
-9.9999999 -4.7193339e-17 0
-9.9999999 2.3678875e-17 0
-9.9999999 1.2127929e-15 0
-9.9999999 -1.2124361e-15 0
-9.9999998 -1.4772204e-18 0
-9.9999998 3.692564e-17 0
-9.9999997 -5.0635827e-13 0
-9.9999997 -5.1631476e-13 0
-9.9999997 2.1687389e-11 0
-9.9999997 9.5928513e-09 0
-9.9999997 -1.3100801e-05 0
-9.9999997 -0.0020301788 0
-9.9999997 0.0020301788 0
-9.9999997 1.3100803e-05 0
-9.9999998 -9.5915154e-09 0
-9.9999998 -2.1687852e-11 0
-9.9999998 7.9832358e-15 0
-9.9999998 2.0861164e-18 0
-9.9999998 -2.4432272e-13 0
-9.9999998 -2.4488568e-13 0
-9.9999998 -6.5148574e-14 0
-9.9999998 -6.769591e-14 0
-9.9999998 -1.1874275e-17 0
-9.9999997 1.1408642e-15 0
-9.9999997 -1.1610901e-15 0
-9.9999997 9.4429422e-17 0
-9.9999997 3.787811e-16 0
-9.9999997 1.4380447e-15 0
-9.9999997 7.9018967e-13 0
-9.9999997 7.9142463e-13 0
-9.9999997 8.5889384e-13 0
-9.9999997 8.5995964e-13 0
-9.9999996 -8.8303366e-15 0
-9.9999996 2.1687392e-11 0
-9.9999996 9.5928514e-09 0
-9.9999996 -1.3100802e-05 0
-9.9999996 -0.0020301788 0
-9.9999996 0.0020301788 0
-9.9999996 1.3100801e-05 0
-9.9999996 -9.592924e-09 0
-9.9999996 -2.1687737e-11 0
-9.9999996 7.9855957e-15 0
-9.9999996 5.1239546e-18 0
-9.9999996 9.6267198e-19 0
-9.9999996 -5.818488e-16 0
-9.9999996 1.3226166e-15 0
-9.9999996 -1.2159814e-15 0
-9.9999996 7.2313062e-14 0
-9.9999996 7.3472079e-14 0
-9.9999996 -1.1394092e-15 0
-9.9999996 -1.3192426e-12 0
-9.9999996 -3.0318131e-12 0
-9.9999996 -1.9223718e-13 0
-9.9999996 1.5174809e-12 0
-9.9999995 -7.961187e-17 0
-9.9999995 1.6765877e-17 0
-9.9999995 5.0880342e-13 0
-9.9999995 4.9887467e-13 0
-9.9999995 2.1687402e-11 0
-9.9999995 9.5928512e-09 0
-9.9999995 -1.3100801e-05 0
-9.9999994 -0.0020301788 0
-9.9999994 0.0020301788 0
-9.9999994 1.3100801e-05 0
-9.9999994 -9.5928515e-09 0
-9.9999994 -2.1687723e-11 0
-9.9999994 7.9713937e-15 0
-9.9999994 -1.9022914e-13 0
-9.9999994 5.4104485e-14 0
-9.9999994 2.4372431e-13 0
-9.9999994 6.7877341e-14 0
-9.9999994 6.5348711e-14 0
-9.9999994 -2.8827068e-17 0
-9.9999994 1.1752416e-15 0
-9.9999994 -6.6996569e-16 0
-9.9999994 8.4065314e-17 0
-9.9999993 3.9768863e-17 0
-9.9999993 3.781481e-15 0
-9.9999994 5.2216642e-13 0
-9.9999994 5.1984774e-13 0
-9.9999994 2.7553942e-13 0
-9.9999994 -1.4356989e-12 0
-9.9999994 -1.5941475e-12 0
-9.9999994 2.1814438e-11 0
-9.9999994 9.5940729e-09 0
-9.9999994 -1.3100799e-05 0
-9.9999994 -0.0020301788 0
-9.9999994 0.0020301788 0
-9.9999994 1.3100799e-05 0
-9.9999994 -9.5925782e-09 0
-9.9999994 -2.14125e-11 0
-9.9999994 2.8157418e-13 0
-9.9999994 -2.9190392e-15 0
-9.9999993 2.1591598e-17 0
-9.9999993 -5.7876209e-16 0
-9.9999993 1.5207891e-15 0
-9.9999993 -1.0316525e-15 0
-9.9999993 -7.751612e-18 0
-9.9999993 3.6109232e-15 0
-9.9999993 -2.2344669e-12 0
-9.9999993 1.2822107e-12 0
-9.9999993 5.5144755e-12 0
-9.9999993 -3.254514e-11 0
-9.9999993 3.6107802e-11 0
-9.9999993 4.4204722e-11 0
-9.9999993 4.4206236e-11 0
-9.9999993 4.4207336e-11 0
-9.9999993 4.4197174e-11 0
-9.9999992 6.5893754e-11 0
-9.9999992 9.6370577e-09 0
-9.9999994 -1.3100757e-05 0
-9.9999994 -0.0020301788 0
-9.9999993 0.0020301788 0
-9.9999993 1.3101123e-05 0
-9.9999993 -9.5486902e-09 0
-9.9999993 2.2511554e-11 0
-9.9999993 7.0951415e-11 0
-9.9999993 7.6513688e-13 0
-9.9999993 4.6787953e-13 0
-9.9999993 2.7496472e-13 0
-9.9999993 2.7689983e-13 0
-9.9999993 2.7416073e-13 0
-9.9999993 2.4827841e-12 0
-9.9999993 -3.0536012e-11 0
-9.9999993 3.8040789e-11 0
-9.9999992 4.4615294e-11 0
-9.9999993 4.2774073e-11 0
-9.9999993 -4.5183313e-10 0
-9.9999987 4.8750235e-07 0
-9.9999987 4.8701254e-07 0
-9.9999987 4.870107e-07 0
-9.9999987 4.8701242e-07 0
-9.9999987 4.8701255e-07 0
-9.9999987 4.8703244e-07 0
-9.9999987 4.9660251e-07 0
-9.9999987 -1.2613792e-05 0
-9.9999987 -0.0020296918 0
-9.9999914 0.0020301783 0
-9.9999987 1.3588588e-05 0
-9.9999987 4.7741975e-07 0
-9.9999987 4.8699094e-07 0
-9.9999987 4.8750485e-07 0
-9.9999988 -4.5006136e-10 0
-9.9999988 4.2149188e-11 0
-9.9999988 4.4702221e-11 0
-9.9999988 4.4703542e-11 0
-9.9999988 4.4701587e-11 0
-9.9999988 4.2868155e-11 0
-9.9999988 -5.0533183e-10 0
-9.9999983 4.8755615e-07 0
-9.9999983 4.8707838e-07 0
-9.9999983 4.8707403e-07 0
-9.9999983 4.8708281e-07 0
-9.9999982 4.8715317e-07 0
-9.9999982 4.8712015e-07 0
-9.9999982 4.8712016e-07 0
-9.9999982 4.8711951e-07 0
-9.9999982 4.871195e-07 0
-9.9999982 4.8714253e-07 0
-9.9999982 4.9670408e-07 0
-9.9999982 -1.2613668e-05 0
-9.9999982 -0.0020296916 0
-9.9999908 0.0020301783 0
-9.9999981 1.3588958e-05 0
-9.9999981 4.7754352e-07 0
-9.9999981 4.8711288e-07 0
-9.9999981 4.8713428e-07 0
-9.9999981 4.8706399e-07 0
-9.999998 4.8709073e-07 0
-9.999998 4.8708994e-07 0
-9.999998 4.8708994e-07 0
-9.999998 4.8709072e-07 0
-9.999998 4.8708563e-07 0
-9.999998 4.863593e-07 0
-9.9999943 3.4100954e-06 0
-9.9999943 3.4093307e-06 0
-9.9999943 3.4093279e-06 0
-9.9999943 3.4093298e-06 0
-9.9999943 3.40933e-06 0
-9.9999943 3.4093283e-06 0
-9.9999943 3.4092465e-06 0
-9.9999943 3.4094209e-06 0
-9.9999942 3.4094348e-06 0
-9.9999942 3.409456e-06 0
-9.9999942 3.4188758e-06 0
-9.9999937 -9.2041773e-06 0
-9.9999937 -0.0020262813 0
-9.9999353 0.0020301773 0
-9.9999937 1.7000822e-05 0
-9.9999937 3.8868822e-06 0
-9.9999937 3.8964419e-06 0
-9.9999937 3.896454e-06 0
-9.9999937 3.896475e-06 0
-9.9999937 3.8964764e-06 0
-9.9999937 3.8964772e-06 0
-9.9999936 3.8964772e-06 0
-9.9999936 3.8964766e-06 0
-9.9999936 3.8964766e-06 0
-9.9999935 3.8964947e-06 0
-9.9999935 3.8965997e-06 0
-9.9999935 3.8965452e-06 0
-9.9999935 3.8965356e-06 0
-9.9999935 3.8965564e-06 0
-9.9999935 3.8965582e-06 0
-9.9999935 3.8965537e-06 0
-9.9999935 3.8953339e-06 0
-9.999992 5.3587235e-06 0
-9.999992 5.3575037e-06 0
-9.9999919 5.3575206e-06 0
-9.9999919 5.3670931e-06 0
-9.9999919 -7.7432718e-06 0
-9.9999919 -0.0020248202 0
-9.9999116 0.0020301763 0
-9.9999919 1.8462954e-05 0
-9.9999919 5.3479605e-06 0
-9.9999919 5.3575205e-06 0
-9.9999919 5.3573872e-06 0
-9.9999914 5.8447202e-06 0
-9.9999913 5.8445706e-06 0
-9.9999913 5.8445711e-06 0
-9.9999913 5.8445404e-06 0
-9.9999913 5.844612e-06 0
-9.9999913 5.8446181e-06 0
-9.9999913 5.8446181e-06 0
-9.9999913 5.8446166e-06 0
-9.9999913 5.8445904e-06 0
-9.9999913 5.8444995e-06 0
-9.9999908 6.3318251e-06 0
-9.9999908 6.3316794e-06 0
-9.9999907 6.3316783e-06 0
-9.9999907 6.3316945e-06 0
-9.9999907 6.3318669e-06 0
-9.9999907 6.3317918e-06 0
-9.9999907 6.3318153e-06 0
-9.9999907 6.3413844e-06 0
-9.9999907 -6.7690007e-06 0
-9.9999907 -0.0020238459 0
-9.999909 0.0020302 0
-10.000005 1.8465884e-05 0
-10.000005 5.8354909e-06 0
-10.000004 6.3317703e-06 0
-10.000004 6.3317902e-06 0
-10.000003 6.3317915e-06 0
-10.000003 7.3059171e-06 0
-10.000002 7.7930192e-06 0
-10.000002 7.792425e-06 0
-10.000002 8.2803634e-06 0
-10.000002 8.2798765e-06 0
-10.000002 8.2798737e-06 0
-10.000002 8.2798697e-06 0
-10.000002 8.2794885e-06 0
-10.000001 8.7672459e-06 0
-10.000001 8.7668836e-06 0
-10.000001 8.7668734e-06 0
-10.000001 8.7668734e-06 0
-10.000001 8.7668732e-06 0
-10.000001 8.7668747e-06 0
-10.000001 8.766916e-06 0
-9.9999934 8.7664701e-06 0
-9.9999934 8.7760174e-06 0
-9.9999935 -4.3368831e-06 0
-9.9999935 -0.0020214339 0
-10.001774 0.001917625 0
-10.002011 2.1945857e-05 0
-10.002011 8.7596914e-06 0
-10.00201 9.2569572e-06 0
-10.00201 9.2564434e-06 0
-10.00201 9.2564417e-06 0
-10.00201 9.2564452e-06 0
-10.00201 9.2570623e-06 0
-10.002018 9.2559262e-06 0
-10.002018 9.2566068e-06 0
-10.002017 9.2565706e-06 0
-10.002017 9.7439548e-06 0
-10.002017 9.7439476e-06 0
-10.002017 9.7439525e-06 0
-10.002017 9.7440073e-06 0
-10.002017 9.743984e-06 0
-10.002017 9.743984e-06 0
-10.002017 9.743984e-06 0
-10.002017 9.743984e-06 0
-10.002017 9.7439883e-06 0
-10.002017 9.7446087e-06 0
-10.002017 9.2563859e-06 0
-10.002009 9.2655866e-06 0
-10.002009 -3.4271846e-06 0
-10.001897 -0.0019083735 0
-8.5744096 -0.0028385958 0
-10.012379 0.0035332792 0
-10.03059 0.0010357825 0
-10.030553 0.0011074894 0
-10.030553 0.0011033232 0
-10.030553 0.0011071225 0
-10.030553 0.0011053048 0
-10.030553 0.0011074916 0
-10.030553 0.0011066183 0
-10.030553 0.0011066337 0
-10.030553 0.0011030321 0
-10.030552 0.0011293378 0
-10.030552 0.0011269642 0
-10.030552 0.0011378563 0
-10.030592 0.0011371329 0
-10.030548 0.00076613562 0
-10.03055 0.0007715633 0
-10.03055 0.00076742502 0
-10.03055 0.00076733591 0
-10.03055 0.00085192167 0
-10.03055 0.00085193178 0
-10.030549 0.00085191211 0
-10.030549 0.00086509453 0
-10.030549 0.00082068703 0
-10.030497 -0.0027178799 0
10.030164 0.0022441178 0
10.037433 -0.0016441038 0
10.030206 1.2226337e-05 0
10.030206 -0.00028203498 0
10.030205 -0.00028133957 0
10.030205 -0.00028013232 0
10.030205 -0.00027669025 0
10.030205 -0.00028057047 0
10.030205 -0.00027872549 0
10.030206 -0.00027139109 0
10.030206 -0.00026643257 0
10.030196 -0.00030786257 0
10.030196 -0.00030368669 0
10.030197 -0.00031655926 0
10.030197 -0.00031606717 0
10.030196 -6.8285077e-05 0
10.030196 -6.834436e-05 0
10.030196 -6.2279405e-05 0
10.030196 -6.0725827e-05 0
10.030196 -0.00011576312 0
10.030196 -0.00010872145 0
10.030186 -0.00011576055 0
10.030178 -0.00013652755 0
10.030178 -7.9384796e-05 0
10.030128 0.00025028843 0
-6.2713923 0.0023753985 0
-6.7059592 0.0013649597 0
-10.029108 0.00012820162 0
-10.029237 0.00023701945 0
-10.029237 0.00023556589 0
-10.02924 0.00023483981 0
-10.02924 0.00023196537 0
-10.02924 0.00023521055 0
-10.02924 0.00023360532 0