# vtk DataFile Version 4.0
hesp visualization file
ASCII
DATASET UNSTRUCTURED_GRID
POINTS 26 double
1.33005 1.33005 1.33005
1 1.34005 1.34005
0.64995 1.35005 1.35005
1.36005 1 1.36005
1 1 1.37005
0.61995 1 1.38005
1.39005 0.60995 1.39005
1 0.59995 1.40005
0.58995 0.58995 1.41005
1.42005 1.42005 1
1 1.43005 1
0.55995 1.44005 1
1.45005 1 1
0.53995 1 1
1.47005 0.52995 1
1 0.51995 1
0.50995 0.50995 1
1.50005 1.50005 0.49995
1 1.51005 0.48995
0.47995 1.52005 0.47995
1.53005 1 0.46995
1 1 0.45995
0.44995 1 0.44995
1.56005 0.43995 0.43995
1 0.42995 0.42995
0.41995 0.41995 0.41995
CELLS 0 0
CELL_TYPES 0
POINT_DATA 26
SCALARS m double
LOOKUP_TABLE default
1
1
1
1
1
1
1
1
1
1
1
1
1
1
1
1
1
1
1
1
1
1
1
1
1
1
VECTORS v double
-1 -1 -1
0 -1 -1
1 -1 -1
-1 0 -1
0 0 -1
1 0 -1
-1 1 -1
0 1 -1
1 1 -1
-1 -1 0
0 -1 0
1 -1 0
-1 0 0
1 0 0
-1 1 0
0 1 0
1 1 0
-1 -1 1
0 -1 1
1 -1 1
-1 0 1
0 0 1
1 0 1
-1 1 1
0 1 1
1 1 1
