# vtk DataFile Version 4.0
hesp visualization file
ASCII
DATASET UNSTRUCTURED_GRID
POINTS 26 double
0.06005 0.06005 0.06005
1 0.07005 0.07005
1.91995 0.08005 0.08005
0.09005 1 0.09005
1 1 0.10005
1.88995 1 0.11005
0.12005 1.87995 0.12005
1 1.86995 0.13005
1.85995 1.85995 0.14005
0.15005 0.15005 1
1 0.16005 1
1.82995 0.17005 1
0.18005 1 1
1.80995 1 1
0.20005 1.79995 1
1 1.78995 1
1.77995 1.77995 1
0.23005 0.23005 1.76995
1 0.24005 1.75995
1.74995 0.25005 1.74995
0.26005 1 1.73995
1 1 1.72995
1.71995 1 1.71995
0.29005 1.70995 1.70995
1 1.69995 1.69995
1.68995 1.68995 1.68995
CELLS 0 0
CELL_TYPES 0
POINT_DATA 26
SCALARS m double
LOOKUP_TABLE default
1
1
1
1
1
1
1
1
1
1
1
1
1
1
1
1
1
1
1
1
1
1
1
1
1
1
VECTORS v double
-1 -1 -1
0 -1 -1
1 -1 -1
-1 0 -1
0 0 -1
1 0 -1
-1 1 -1
0 1 -1
1 1 -1
-1 -1 0
0 -1 0
1 -1 0
-1 0 0
1 0 0
-1 1 0
0 1 0
1 1 0
-1 -1 1
0 -1 1
1 -1 1
-1 0 1
0 0 1
1 0 1
-1 1 1
0 1 1
1 1 1
