# vtk DataFile Version 4.0
hesp visualization file
ASCII
DATASET UNSTRUCTURED_GRID
POINTS 26 double
1.71005 1.71005 1.71005
1 1.72005 1.72005
0.26995 1.73005 1.73005
1.74005 1 1.74005
1 1 1.75005
0.23995 1 1.76005
1.77005 0.22995 1.77005
1 0.21995 1.78005
0.20995 0.20995 1.79005
1.80005 1.80005 1
1 1.81005 1
0.17995 1.82005 1
1.83005 1 1
0.15995 1 1
1.85005 0.14995 1
1 0.13995 1
0.12995 0.12995 1
1.88005 1.88005 0.11995
1 1.89005 0.10995
0.09995 1.90005 0.09995
1.91005 1 0.08995
1 1 0.07995
0.06995 1 0.06995
1.94005 0.05995 0.05995
1 0.04995 0.04995
0.03995 0.03995 0.03995
CELLS 0 0
CELL_TYPES 0
POINT_DATA 26
SCALARS m double
LOOKUP_TABLE default
1
1
1
1
1
1
1
1
1
1
1
1
1
1
1
1
1
1
1
1
1
1
1
1
1
1
VECTORS v double
-1 -1 -1
0 -1 -1
1 -1 -1
-1 0 -1
0 0 -1
1 0 -1
-1 1 -1
0 1 -1
1 1 -1
-1 -1 0
0 -1 0
1 -1 0
-1 0 0
1 0 0
-1 1 0
0 1 0
1 1 0
-1 -1 1
0 -1 1
1 -1 1
-1 0 1
0 0 1
1 0 1
-1 1 1
0 1 1
1 1 1
