# vtk DataFile Version 4.0
hesp visualization file
ASCII
DATASET UNSTRUCTURED_GRID
POINTS 26 double
1.77005 1.77005 1.77005
1 1.78005 1.78005
0.20995 1.79005 1.79005
1.80005 1 1.80005
1 1 1.81005
0.17995 1 1.82005
1.83005 0.16995 1.83005
1 0.15995 1.84005
0.14995 0.14995 1.85005
1.86005 1.86005 1
1 1.87005 1
0.11995 1.88005 1
1.89005 1 1
0.09995 1 1
1.91005 0.08995 1
1 0.07995 1
0.06995 0.06995 1
1.94005 1.94005 0.05995
1 1.95005 0.04995
0.03995 1.96005 0.03995
1.97005 1 0.02995
1 1 0.01995
0.00995 1 0.00995
5e-05 1.99995 1.99995
1 1.98995 1.98995
1.97995 1.97995 1.97995
CELLS 0 0
CELL_TYPES 0
POINT_DATA 26
SCALARS m double
LOOKUP_TABLE default
1
1
1
1
1
1
1
1
1
1
1
1
1
1
1
1
1
1
1
1
1
1
1
1
1
1
VECTORS v double
-1 -1 -1
0 -1 -1
1 -1 -1
-1 0 -1
0 0 -1
1 0 -1
-1 1 -1
0 1 -1
1 1 -1
-1 -1 0
0 -1 0
1 -1 0
-1 0 0
1 0 0
-1 1 0
0 1 0
1 1 0
-1 -1 1
0 -1 1
1 -1 1
-1 0 1
0 0 1
1 0 1
-1 1 1
0 1 1
1 1 1
