# vtk DataFile Version 4.0
hesp visualization file
ASCII
DATASET UNSTRUCTURED_GRID
POINTS 26 double
0.24005 0.24005 0.24005
1 0.25005 0.25005
1.73995 0.26005 0.26005
0.27005 1 0.27005
1 1 0.28005
1.70995 1 0.29005
0.30005 1.69995 0.30005
1 1.68995 0.31005
1.67995 1.67995 0.32005
0.33005 0.33005 1
1 0.34005 1
1.64995 0.35005 1
0.36005 1 1
1.62995 1 1
0.38005 1.61995 1
1 1.60995 1
1.59995 1.59995 1
0.41005 0.41005 1.58995
1 0.42005 1.57995
1.56995 0.43005 1.56995
0.44005 1 1.55995
1 1 1.54995
1.53995 1 1.53995
0.47005 1.52995 1.52995
1 1.51995 1.51995
1.50995 1.50995 1.50995
CELLS 0 0
CELL_TYPES 0
POINT_DATA 26
SCALARS m double
LOOKUP_TABLE default
1
1
1
1
1
1
1
1
1
1
1
1
1
1
1
1
1
1
1
1
1
1
1
1
1
1
VECTORS v double
-1 -1 -1
0 -1 -1
1 -1 -1
-1 0 -1
0 0 -1
1 0 -1
-1 1 -1
0 1 -1
1 1 -1
-1 -1 0
0 -1 0
1 -1 0
-1 0 0
1 0 0
-1 1 0
0 1 0
1 1 0
-1 -1 1
0 -1 1
1 -1 1
-1 0 1
0 0 1
1 0 1
-1 1 1
0 1 1
1 1 1
