# vtk DataFile Version 4.0
hesp visualization file
ASCII
DATASET UNSTRUCTURED_GRID
POINTS 26 double
1.76005 1.76005 1.76005
1 1.77005 1.77005
0.21995 1.78005 1.78005
1.79005 1 1.79005
1 1 1.80005
0.18995 1 1.81005
1.82005 0.17995 1.82005
1 0.16995 1.83005
0.15995 0.15995 1.84005
1.85005 1.85005 1
1 1.86005 1
0.12995 1.87005 1
1.88005 1 1
0.10995 1 1
1.90005 0.09995 1
1 0.08995 1
0.07995 0.07995 1
1.93005 1.93005 0.06995
1 1.94005 0.05995
0.04995 1.95005 0.04995
1.96005 1 0.03995
1 1 0.02995
0.01995 1 0.01995
1.99005 0.00995 0.00995
1 1.99995 1.99995
1.98995 1.98995 1.98995
CELLS 0 0
CELL_TYPES 0
POINT_DATA 26
SCALARS m double
LOOKUP_TABLE default
1
1
1
1
1
1
1
1
1
1
1
1
1
1
1
1
1
1
1
1
1
1
1
1
1
1
VECTORS v double
-1 -1 -1
0 -1 -1
1 -1 -1
-1 0 -1
0 0 -1
1 0 -1
-1 1 -1
0 1 -1
1 1 -1
-1 -1 0
0 -1 0
1 -1 0
-1 0 0
1 0 0
-1 1 0
0 1 0
1 1 0
-1 -1 1
0 -1 1
1 -1 1
-1 0 1
0 0 1
1 0 1
-1 1 1
0 1 1
1 1 1
