# vtk DataFile Version 4.0
hesp visualization file
ASCII
DATASET UNSTRUCTURED_GRID
POINTS 26 double
1.37005 1.37005 1.37005
1 1.38005 1.38005
0.60995 1.39005 1.39005
1.40005 1 1.40005
1 1 1.41005
0.57995 1 1.42005
1.43005 0.56995 1.43005
1 0.55995 1.44005
0.54995 0.54995 1.45005
1.46005 1.46005 1
1 1.47005 1
0.51995 1.48005 1
1.49005 1 1
0.49995 1 1
1.51005 0.48995 1
1 0.47995 1
0.46995 0.46995 1
1.54005 1.54005 0.45995
1 1.55005 0.44995
0.43995 1.56005 0.43995
1.57005 1 0.42995
1 1 0.41995
0.40995 1 0.40995
1.60005 0.39995 0.39995
1 0.38995 0.38995
0.37995 0.37995 0.37995
CELLS 0 0
CELL_TYPES 0
POINT_DATA 26
SCALARS m double
LOOKUP_TABLE default
1
1
1
1
1
1
1
1
1
1
1
1
1
1
1
1
1
1
1
1
1
1
1
1
1
1
VECTORS v double
-1 -1 -1
0 -1 -1
1 -1 -1
-1 0 -1
0 0 -1
1 0 -1
-1 1 -1
0 1 -1
1 1 -1
-1 -1 0
0 -1 0
1 -1 0
-1 0 0
1 0 0
-1 1 0
0 1 0
1 1 0
-1 -1 1
0 -1 1
1 -1 1
-1 0 1
0 0 1
1 0 1
-1 1 1
0 1 1
1 1 1
