# vtk DataFile Version 4.0
hesp visualization file
ASCII
DATASET UNSTRUCTURED_GRID
POINTS 26 double
1.40005 1.40005 1.40005
1 1.41005 1.41005
0.57995 1.42005 1.42005
1.43005 1 1.43005
1 1 1.44005
0.54995 1 1.45005
1.46005 0.53995 1.46005
1 0.52995 1.47005
0.51995 0.51995 1.48005
1.49005 1.49005 1
1 1.50005 1
0.48995 1.51005 1
1.52005 1 1
0.46995 1 1
1.54005 0.45995 1
1 0.44995 1
0.43995 0.43995 1
1.57005 1.57005 0.42995
1 1.58005 0.41995
0.40995 1.59005 0.40995
1.60005 1 0.39995
1 1 0.38995
0.37995 1 0.37995
1.63005 0.36995 0.36995
1 0.35995 0.35995
0.34995 0.34995 0.34995
CELLS 0 0
CELL_TYPES 0
POINT_DATA 26
SCALARS m double
LOOKUP_TABLE default
1
1
1
1
1
1
1
1
1
1
1
1
1
1
1
1
1
1
1
1
1
1
1
1
1
1
VECTORS v double
-1 -1 -1
0 -1 -1
1 -1 -1
-1 0 -1
0 0 -1
1 0 -1
-1 1 -1
0 1 -1
1 1 -1
-1 -1 0
0 -1 0
1 -1 0
-1 0 0
1 0 0
-1 1 0
0 1 0
1 1 0
-1 -1 1
0 -1 1
1 -1 1
-1 0 1
0 0 1
1 0 1
-1 1 1
0 1 1
1 1 1
