# vtk DataFile Version 4.0
hesp visualization file
ASCII
DATASET UNSTRUCTURED_GRID
POINTS 26 double
0.83005 0.83005 0.83005
1 0.84005 0.84005
1.14995 0.85005 0.85005
0.86005 1 0.86005
1 1 0.87005
1.11995 1 0.88005
0.89005 1.10995 0.89005
1 1.09995 0.90005
1.08995 1.08995 0.91005
0.92005 0.92005 1
1 0.93005 1
1.05995 0.94005 1
0.95005 1 1
1.03995 1 1
0.97005 1.02995 1
1 1.01995 1
1.00995 1.00995 1
1.00005 1.00005 0.99995
1 1.01005 0.98995
0.97995 1.02005 0.97995
1.03005 1 0.96995
1 1 0.95995
0.94995 1 0.94995
1.06005 0.93995 0.93995
1 0.92995 0.92995
0.91995 0.91995 0.91995
CELLS 0 0
CELL_TYPES 0
POINT_DATA 26
SCALARS m double
LOOKUP_TABLE default
1
1
1
1
1
1
1
1
1
1
1
1
1
1
1
1
1
1
1
1
1
1
1
1
1
1
VECTORS v double
-1 -1 -1
0 -1 -1
1 -1 -1
-1 0 -1
0 0 -1
1 0 -1
-1 1 -1
0 1 -1
1 1 -1
-1 -1 0
0 -1 0
1 -1 0
-1 0 0
1 0 0
-1 1 0
0 1 0
1 1 0
-1 -1 1
0 -1 1
1 -1 1
-1 0 1
0 0 1
1 0 1
-1 1 1
0 1 1
1 1 1
