# vtk DataFile Version 4.0
hesp visualization file
ASCII
DATASET UNSTRUCTURED_GRID
POINTS 26 double
1.14005 1.14005 1.14005
1 1.15005 1.15005
0.83995 1.16005 1.16005
1.17005 1 1.17005
1 1 1.18005
0.80995 1 1.19005
1.20005 0.79995 1.20005
1 0.78995 1.21005
0.77995 0.77995 1.22005
1.23005 1.23005 1
1 1.24005 1
0.74995 1.25005 1
1.26005 1 1
0.72995 1 1
1.28005 0.71995 1
1 0.70995 1
0.69995 0.69995 1
1.31005 1.31005 0.68995
1 1.32005 0.67995
0.66995 1.33005 0.66995
1.34005 1 0.65995
1 1 0.64995
0.63995 1 0.63995
1.37005 0.62995 0.62995
1 0.61995 0.61995
0.60995 0.60995 0.60995
CELLS 0 0
CELL_TYPES 0
POINT_DATA 26
SCALARS m double
LOOKUP_TABLE default
1
1
1
1
1
1
1
1
1
1
1
1
1
1
1
1
1
1
1
1
1
1
1
1
1
1
VECTORS v double
-1 -1 -1
0 -1 -1
1 -1 -1
-1 0 -1
0 0 -1
1 0 -1
-1 1 -1
0 1 -1
1 1 -1
-1 -1 0
0 -1 0
1 -1 0
-1 0 0
1 0 0
-1 1 0
0 1 0
1 1 0
-1 -1 1
0 -1 1
1 -1 1
-1 0 1
0 0 1
1 0 1
-1 1 1
0 1 1
1 1 1
