# vtk DataFile Version 4.0
hesp visualization file
ASCII
DATASET UNSTRUCTURED_GRID
POINTS 26 double
1.19005 1.19005 1.19005
1 1.20005 1.20005
0.78995 1.21005 1.21005
1.22005 1 1.22005
1 1 1.23005
0.75995 1 1.24005
1.25005 0.74995 1.25005
1 0.73995 1.26005
0.72995 0.72995 1.27005
1.28005 1.28005 1
1 1.29005 1
0.69995 1.30005 1
1.31005 1 1
0.67995 1 1
1.33005 0.66995 1
1 0.65995 1
0.64995 0.64995 1
1.36005 1.36005 0.63995
1 1.37005 0.62995
0.61995 1.38005 0.61995
1.39005 1 0.60995
1 1 0.59995
0.58995 1 0.58995
1.42005 0.57995 0.57995
1 0.56995 0.56995
0.55995 0.55995 0.55995
CELLS 0 0
CELL_TYPES 0
POINT_DATA 26
SCALARS m double
LOOKUP_TABLE default
1
1
1
1
1
1
1
1
1
1
1
1
1
1
1
1
1
1
1
1
1
1
1
1
1
1
VECTORS v double
-1 -1 -1
0 -1 -1
1 -1 -1
-1 0 -1
0 0 -1
1 0 -1
-1 1 -1
0 1 -1
1 1 -1
-1 -1 0
0 -1 0
1 -1 0
-1 0 0
1 0 0
-1 1 0
0 1 0
1 1 0
-1 -1 1
0 -1 1
1 -1 1
-1 0 1
0 0 1
1 0 1
-1 1 1
0 1 1
1 1 1
