# vtk DataFile Version 4.0
hesp visualization file
ASCII
DATASET UNSTRUCTURED_GRID
POINTS 26 double
1.96005 1.96005 1.96005
1 1.97005 1.97005
0.01995 1.98005 1.98005
1.99005 1 1.99005
1 1 5e-05
1.98995 1 0.01005
0.02005 1.97995 0.02005
1 1.96995 0.03005
1.95995 1.95995 0.04005
0.05005 0.05005 1
1 0.06005 1
1.92995 0.07005 1
0.08005 1 1
1.90995 1 1
0.10005 1.89995 1
1 1.88995 1
1.87995 1.87995 1
0.13005 0.13005 1.86995
1 0.14005 1.85995
1.84995 0.15005 1.84995
0.16005 1 1.83995
1 1 1.82995
1.81995 1 1.81995
0.19005 1.80995 1.80995
1 1.79995 1.79995
1.78995 1.78995 1.78995
CELLS 0 0
CELL_TYPES 0
POINT_DATA 26
SCALARS m double
LOOKUP_TABLE default
1
1
1
1
1
1
1
1
1
1
1
1
1
1
1
1
1
1
1
1
1
1
1
1
1
1
VECTORS v double
-1 -1 -1
0 -1 -1
1 -1 -1
-1 0 -1
0 0 -1
1 0 -1
-1 1 -1
0 1 -1
1 1 -1
-1 -1 0
0 -1 0
1 -1 0
-1 0 0
1 0 0
-1 1 0
0 1 0
1 1 0
-1 -1 1
0 -1 1
1 -1 1
-1 0 1
0 0 1
1 0 1
-1 1 1
0 1 1
1 1 1
