# vtk DataFile Version 4.0
hesp visualization file
ASCII
DATASET UNSTRUCTURED_GRID
POINTS 26 double
0.15005 0.15005 0.15005
1 0.16005 0.16005
1.82995 0.17005 0.17005
0.18005 1 0.18005
1 1 0.19005
1.79995 1 0.20005
0.21005 1.78995 0.21005
1 1.77995 0.22005
1.76995 1.76995 0.23005
0.24005 0.24005 1
1 0.25005 1
1.73995 0.26005 1
0.27005 1 1
1.71995 1 1
0.29005 1.70995 1
1 1.69995 1
1.68995 1.68995 1
0.32005 0.32005 1.67995
1 0.33005 1.66995
1.65995 0.34005 1.65995
0.35005 1 1.64995
1 1 1.63995
1.62995 1 1.62995
0.38005 1.61995 1.61995
1 1.60995 1.60995
1.59995 1.59995 1.59995
CELLS 0 0
CELL_TYPES 0
POINT_DATA 26
SCALARS m double
LOOKUP_TABLE default
1
1
1
1
1
1
1
1
1
1
1
1
1
1
1
1
1
1
1
1
1
1
1
1
1
1
VECTORS v double
-1 -1 -1
0 -1 -1
1 -1 -1
-1 0 -1
0 0 -1
1 0 -1
-1 1 -1
0 1 -1
1 1 -1
-1 -1 0
0 -1 0
1 -1 0
-1 0 0
1 0 0
-1 1 0
0 1 0
1 1 0
-1 -1 1
0 -1 1
1 -1 1
-1 0 1
0 0 1
1 0 1
-1 1 1
0 1 1
1 1 1
