# vtk DataFile Version 4.0
hesp visualization file
ASCII
DATASET UNSTRUCTURED_GRID
POINTS 26 double
0.51005 0.51005 0.51005
1 0.52005 0.52005
1.46995 0.53005 0.53005
0.54005 1 0.54005
1 1 0.55005
1.43995 1 0.56005
0.57005 1.42995 0.57005
1 1.41995 0.58005
1.40995 1.40995 0.59005
0.60005 0.60005 1
1 0.61005 1
1.37995 0.62005 1
0.63005 1 1
1.35995 1 1
0.65005 1.34995 1
1 1.33995 1
1.32995 1.32995 1
0.68005 0.68005 1.31995
1 0.69005 1.30995
1.29995 0.70005 1.29995
0.71005 1 1.28995
1 1 1.27995
1.26995 1 1.26995
0.74005 1.25995 1.25995
1 1.24995 1.24995
1.23995 1.23995 1.23995
CELLS 0 0
CELL_TYPES 0
POINT_DATA 26
SCALARS m double
LOOKUP_TABLE default
1
1
1
1
1
1
1
1
1
1
1
1
1
1
1
1
1
1
1
1
1
1
1
1
1
1
VECTORS v double
-1 -1 -1
0 -1 -1
1 -1 -1
-1 0 -1
0 0 -1
1 0 -1
-1 1 -1
0 1 -1
1 1 -1
-1 -1 0
0 -1 0
1 -1 0
-1 0 0
1 0 0
-1 1 0
0 1 0
1 1 0
-1 -1 1
0 -1 1
1 -1 1
-1 0 1
0 0 1
1 0 1
-1 1 1
0 1 1
1 1 1
