# vtk DataFile Version 4.0
hesp visualization file
ASCII
DATASET UNSTRUCTURED_GRID
POINTS 26 double
1.57005 1.57005 1.57005
1 1.58005 1.58005
0.40995 1.59005 1.59005
1.60005 1 1.60005
1 1 1.61005
0.37995 1 1.62005
1.63005 0.36995 1.63005
1 0.35995 1.64005
0.34995 0.34995 1.65005
1.66005 1.66005 1
1 1.67005 1
0.31995 1.68005 1
1.69005 1 1
0.29995 1 1
1.71005 0.28995 1
1 0.27995 1
0.26995 0.26995 1
1.74005 1.74005 0.25995
1 1.75005 0.24995
0.23995 1.76005 0.23995
1.77005 1 0.22995
1 1 0.21995
0.20995 1 0.20995
1.80005 0.19995 0.19995
1 0.18995 0.18995
0.17995 0.17995 0.17995
CELLS 0 0
CELL_TYPES 0
POINT_DATA 26
SCALARS m double
LOOKUP_TABLE default
1
1
1
1
1
1
1
1
1
1
1
1
1
1
1
1
1
1
1
1
1
1
1
1
1
1
VECTORS v double
-1 -1 -1
0 -1 -1
1 -1 -1
-1 0 -1
0 0 -1
1 0 -1
-1 1 -1
0 1 -1
1 1 -1
-1 -1 0
0 -1 0
1 -1 0
-1 0 0
1 0 0
-1 1 0
0 1 0
1 1 0
-1 -1 1
0 -1 1
1 -1 1
-1 0 1
0 0 1
1 0 1
-1 1 1
0 1 1
1 1 1
