# vtk DataFile Version 4.0
hesp visualization file
ASCII
DATASET UNSTRUCTURED_GRID
POINTS 26 double
0.02005 0.02005 0.02005
1 0.03005 0.03005
1.95995 0.04005 0.04005
0.05005 1 0.05005
1 1 0.06005
1.92995 1 0.07005
0.08005 1.91995 0.08005
1 1.90995 0.09005
1.89995 1.89995 0.10005
0.11005 0.11005 1
1 0.12005 1
1.86995 0.13005 1
0.14005 1 1
1.84995 1 1
0.16005 1.83995 1
1 1.82995 1
1.81995 1.81995 1
0.19005 0.19005 1.80995
1 0.20005 1.79995
1.78995 0.21005 1.78995
0.22005 1 1.77995
1 1 1.76995
1.75995 1 1.75995
0.25005 1.74995 1.74995
1 1.73995 1.73995
1.72995 1.72995 1.72995
CELLS 0 0
CELL_TYPES 0
POINT_DATA 26
SCALARS m double
LOOKUP_TABLE default
1
1
1
1
1
1
1
1
1
1
1
1
1
1
1
1
1
1
1
1
1
1
1
1
1
1
VECTORS v double
-1 -1 -1
0 -1 -1
1 -1 -1
-1 0 -1
0 0 -1
1 0 -1
-1 1 -1
0 1 -1
1 1 -1
-1 -1 0
0 -1 0
1 -1 0
-1 0 0
1 0 0
-1 1 0
0 1 0
1 1 0
-1 -1 1
0 -1 1
1 -1 1
-1 0 1
0 0 1
1 0 1
-1 1 1
0 1 1
1 1 1
