# vtk DataFile Version 4.0
hesp visualization file
ASCII
DATASET UNSTRUCTURED_GRID
POINTS 26 double
1.68005 1.68005 1.68005
1 1.69005 1.69005
0.29995 1.70005 1.70005
1.71005 1 1.71005
1 1 1.72005
0.26995 1 1.73005
1.74005 0.25995 1.74005
1 0.24995 1.75005
0.23995 0.23995 1.76005
1.77005 1.77005 1
1 1.78005 1
0.20995 1.79005 1
1.80005 1 1
0.18995 1 1
1.82005 0.17995 1
1 0.16995 1
0.15995 0.15995 1
1.85005 1.85005 0.14995
1 1.86005 0.13995
0.12995 1.87005 0.12995
1.88005 1 0.11995
1 1 0.10995
0.09995 1 0.09995
1.91005 0.08995 0.08995
1 0.07995 0.07995
0.06995 0.06995 0.06995
CELLS 0 0
CELL_TYPES 0
POINT_DATA 26
SCALARS m double
LOOKUP_TABLE default
1
1
1
1
1
1
1
1
1
1
1
1
1
1
1
1
1
1
1
1
1
1
1
1
1
1
VECTORS v double
-1 -1 -1
0 -1 -1
1 -1 -1
-1 0 -1
0 0 -1
1 0 -1
-1 1 -1
0 1 -1
1 1 -1
-1 -1 0
0 -1 0
1 -1 0
-1 0 0
1 0 0
-1 1 0
0 1 0
1 1 0
-1 -1 1
0 -1 1
1 -1 1
-1 0 1
0 0 1
1 0 1
-1 1 1
0 1 1
1 1 1
