# vtk DataFile Version 4.0
hesp visualization file
ASCII
DATASET UNSTRUCTURED_GRID
POINTS 26 double
0.05005 0.05005 0.05005
1 0.06005 0.06005
1.92995 0.07005 0.07005
0.08005 1 0.08005
1 1 0.09005
1.89995 1 0.10005
0.11005 1.88995 0.11005
1 1.87995 0.12005
1.86995 1.86995 0.13005
0.14005 0.14005 1
1 0.15005 1
1.83995 0.16005 1
0.17005 1 1
1.81995 1 1
0.19005 1.80995 1
1 1.79995 1
1.78995 1.78995 1
0.22005 0.22005 1.77995
1 0.23005 1.76995
1.75995 0.24005 1.75995
0.25005 1 1.74995
1 1 1.73995
1.72995 1 1.72995
0.28005 1.71995 1.71995
1 1.70995 1.70995
1.69995 1.69995 1.69995
CELLS 0 0
CELL_TYPES 0
POINT_DATA 26
SCALARS m double
LOOKUP_TABLE default
1
1
1
1
1
1
1
1
1
1
1
1
1
1
1
1
1
1
1
1
1
1
1
1
1
1
VECTORS v double
-1 -1 -1
0 -1 -1
1 -1 -1
-1 0 -1
0 0 -1
1 0 -1
-1 1 -1
0 1 -1
1 1 -1
-1 -1 0
0 -1 0
1 -1 0
-1 0 0
1 0 0
-1 1 0
0 1 0
1 1 0
-1 -1 1
0 -1 1
1 -1 1
-1 0 1
0 0 1
1 0 1
-1 1 1
0 1 1
1 1 1
