# vtk DataFile Version 4.0
hesp visualization file
ASCII
DATASET UNSTRUCTURED_GRID
POINTS 26 double
0.72005 0.72005 0.72005
1 0.73005 0.73005
1.25995 0.74005 0.74005
0.75005 1 0.75005
1 1 0.76005
1.22995 1 0.77005
0.78005 1.21995 0.78005
1 1.20995 0.79005
1.19995 1.19995 0.80005
0.81005 0.81005 1
1 0.82005 1
1.16995 0.83005 1
0.84005 1 1
1.14995 1 1
0.86005 1.13995 1
1 1.12995 1
1.11995 1.11995 1
0.89005 0.89005 1.10995
1 0.90005 1.09995
1.08995 0.91005 1.08995
0.92005 1 1.07995
1 1 1.06995
1.05995 1 1.05995
0.95005 1.04995 1.04995
1 1.03995 1.03995
1.02995 1.02995 1.02995
CELLS 0 0
CELL_TYPES 0
POINT_DATA 26
SCALARS m double
LOOKUP_TABLE default
1
1
1
1
1
1
1
1
1
1
1
1
1
1
1
1
1
1
1
1
1
1
1
1
1
1
VECTORS v double
-1 -1 -1
0 -1 -1
1 -1 -1
-1 0 -1
0 0 -1
1 0 -1
-1 1 -1
0 1 -1
1 1 -1
-1 -1 0
0 -1 0
1 -1 0
-1 0 0
1 0 0
-1 1 0
0 1 0
1 1 0
-1 -1 1
0 -1 1
1 -1 1
-1 0 1
0 0 1
1 0 1
-1 1 1
0 1 1
1 1 1
