# vtk DataFile Version 4.0
hesp visualization file
ASCII
DATASET UNSTRUCTURED_GRID
POINTS 26 double
0.68005 0.68005 0.68005
1 0.69005 0.69005
1.29995 0.70005 0.70005
0.71005 1 0.71005
1 1 0.72005
1.26995 1 0.73005
0.74005 1.25995 0.74005
1 1.24995 0.75005
1.23995 1.23995 0.76005
0.77005 0.77005 1
1 0.78005 1
1.20995 0.79005 1
0.80005 1 1
1.18995 1 1
0.82005 1.17995 1
1 1.16995 1
1.15995 1.15995 1
0.85005 0.85005 1.14995
1 0.86005 1.13995
1.12995 0.87005 1.12995
0.88005 1 1.11995
1 1 1.10995
1.09995 1 1.09995
0.91005 1.08995 1.08995
1 1.07995 1.07995
1.06995 1.06995 1.06995
CELLS 0 0
CELL_TYPES 0
POINT_DATA 26
SCALARS m double
LOOKUP_TABLE default
1
1
1
1
1
1
1
1
1
1
1
1
1
1
1
1
1
1
1
1
1
1
1
1
1
1
VECTORS v double
-1 -1 -1
0 -1 -1
1 -1 -1
-1 0 -1
0 0 -1
1 0 -1
-1 1 -1
0 1 -1
1 1 -1
-1 -1 0
0 -1 0
1 -1 0
-1 0 0
1 0 0
-1 1 0
0 1 0
1 1 0
-1 -1 1
0 -1 1
1 -1 1
-1 0 1
0 0 1
1 0 1
-1 1 1
0 1 1
1 1 1
