# vtk DataFile Version 4.0
hesp visualization file
ASCII
DATASET UNSTRUCTURED_GRID
POINTS 26 double
0.16005 0.16005 0.16005
1 0.17005 0.17005
1.81995 0.18005 0.18005
0.19005 1 0.19005
1 1 0.20005
1.78995 1 0.21005
0.22005 1.77995 0.22005
1 1.76995 0.23005
1.75995 1.75995 0.24005
0.25005 0.25005 1
1 0.26005 1
1.72995 0.27005 1
0.28005 1 1
1.70995 1 1
0.30005 1.69995 1
1 1.68995 1
1.67995 1.67995 1
0.33005 0.33005 1.66995
1 0.34005 1.65995
1.64995 0.35005 1.64995
0.36005 1 1.63995
1 1 1.62995
1.61995 1 1.61995
0.39005 1.60995 1.60995
1 1.59995 1.59995
1.58995 1.58995 1.58995
CELLS 0 0
CELL_TYPES 0
POINT_DATA 26
SCALARS m double
LOOKUP_TABLE default
1
1
1
1
1
1
1
1
1
1
1
1
1
1
1
1
1
1
1
1
1
1
1
1
1
1
VECTORS v double
-1 -1 -1
0 -1 -1
1 -1 -1
-1 0 -1
0 0 -1
1 0 -1
-1 1 -1
0 1 -1
1 1 -1
-1 -1 0
0 -1 0
1 -1 0
-1 0 0
1 0 0
-1 1 0
0 1 0
1 1 0
-1 -1 1
0 -1 1
1 -1 1
-1 0 1
0 0 1
1 0 1
-1 1 1
0 1 1
1 1 1
