# vtk DataFile Version 4.0
hesp visualization file
ASCII
DATASET UNSTRUCTURED_GRID
POINTS 26 double
1.72005 1.72005 1.72005
1 1.73005 1.73005
0.25995 1.74005 1.74005
1.75005 1 1.75005
1 1 1.76005
0.22995 1 1.77005
1.78005 0.21995 1.78005
1 0.20995 1.79005
0.19995 0.19995 1.80005
1.81005 1.81005 1
1 1.82005 1
0.16995 1.83005 1
1.84005 1 1
0.14995 1 1
1.86005 0.13995 1
1 0.12995 1
0.11995 0.11995 1
1.89005 1.89005 0.10995
1 1.90005 0.09995
0.08995 1.91005 0.08995
1.92005 1 0.07995
1 1 0.06995
0.05995 1 0.05995
1.95005 0.04995 0.04995
1 0.03995 0.03995
0.02995 0.02995 0.02995
CELLS 0 0
CELL_TYPES 0
POINT_DATA 26
SCALARS m double
LOOKUP_TABLE default
1
1
1
1
1
1
1
1
1
1
1
1
1
1
1
1
1
1
1
1
1
1
1
1
1
1
VECTORS v double
-1 -1 -1
0 -1 -1
1 -1 -1
-1 0 -1
0 0 -1
1 0 -1
-1 1 -1
0 1 -1
1 1 -1
-1 -1 0
0 -1 0
1 -1 0
-1 0 0
1 0 0
-1 1 0
0 1 0
1 1 0
-1 -1 1
0 -1 1
1 -1 1
-1 0 1
0 0 1
1 0 1
-1 1 1
0 1 1
1 1 1
