# vtk DataFile Version 4.0
hesp visualization file
ASCII
DATASET UNSTRUCTURED_GRID
POINTS 26 double
1.51005 1.51005 1.51005
1 1.52005 1.52005
0.46995 1.53005 1.53005
1.54005 1 1.54005
1 1 1.55005
0.43995 1 1.56005
1.57005 0.42995 1.57005
1 0.41995 1.58005
0.40995 0.40995 1.59005
1.60005 1.60005 1
1 1.61005 1
0.37995 1.62005 1
1.63005 1 1
0.35995 1 1
1.65005 0.34995 1
1 0.33995 1
0.32995 0.32995 1
1.68005 1.68005 0.31995
1 1.69005 0.30995
0.29995 1.70005 0.29995
1.71005 1 0.28995
1 1 0.27995
0.26995 1 0.26995
1.74005 0.25995 0.25995
1 0.24995 0.24995
0.23995 0.23995 0.23995
CELLS 0 0
CELL_TYPES 0
POINT_DATA 26
SCALARS m double
LOOKUP_TABLE default
1
1
1
1
1
1
1
1
1
1
1
1
1
1
1
1
1
1
1
1
1
1
1
1
1
1
VECTORS v double
-1 -1 -1
0 -1 -1
1 -1 -1
-1 0 -1
0 0 -1
1 0 -1
-1 1 -1
0 1 -1
1 1 -1
-1 -1 0
0 -1 0
1 -1 0
-1 0 0
1 0 0
-1 1 0
0 1 0
1 1 0
-1 -1 1
0 -1 1
1 -1 1
-1 0 1
0 0 1
1 0 1
-1 1 1
0 1 1
1 1 1
