# vtk DataFile Version 4.0
hesp visualization file
ASCII
DATASET UNSTRUCTURED_GRID
POINTS 26 double
1.70005 1.70005 1.70005
1 1.71005 1.71005
0.27995 1.72005 1.72005
1.73005 1 1.73005
1 1 1.74005
0.24995 1 1.75005
1.76005 0.23995 1.76005
1 0.22995 1.77005
0.21995 0.21995 1.78005
1.79005 1.79005 1
1 1.80005 1
0.18995 1.81005 1
1.82005 1 1
0.16995 1 1
1.84005 0.15995 1
1 0.14995 1
0.13995 0.13995 1
1.87005 1.87005 0.12995
1 1.88005 0.11995
0.10995 1.89005 0.10995
1.90005 1 0.09995
1 1 0.08995
0.07995 1 0.07995
1.93005 0.06995 0.06995
1 0.05995 0.05995
0.04995 0.04995 0.04995
CELLS 0 0
CELL_TYPES 0
POINT_DATA 26
SCALARS m double
LOOKUP_TABLE default
1
1
1
1
1
1
1
1
1
1
1
1
1
1
1
1
1
1
1
1
1
1
1
1
1
1
VECTORS v double
-1 -1 -1
0 -1 -1
1 -1 -1
-1 0 -1
0 0 -1
1 0 -1
-1 1 -1
0 1 -1
1 1 -1
-1 -1 0
0 -1 0
1 -1 0
-1 0 0
1 0 0
-1 1 0
0 1 0
1 1 0
-1 -1 1
0 -1 1
1 -1 1
-1 0 1
0 0 1
1 0 1
-1 1 1
0 1 1
1 1 1
