# vtk DataFile Version 4.0
hesp visualization file
ASCII
DATASET UNSTRUCTURED_GRID
POINTS 26 double
1.48005 1.48005 1.48005
1 1.49005 1.49005
0.49995 1.50005 1.50005
1.51005 1 1.51005
1 1 1.52005
0.46995 1 1.53005
1.54005 0.45995 1.54005
1 0.44995 1.55005
0.43995 0.43995 1.56005
1.57005 1.57005 1
1 1.58005 1
0.40995 1.59005 1
1.60005 1 1
0.38995 1 1
1.62005 0.37995 1
1 0.36995 1
0.35995 0.35995 1
1.65005 1.65005 0.34995
1 1.66005 0.33995
0.32995 1.67005 0.32995
1.68005 1 0.31995
1 1 0.30995
0.29995 1 0.29995
1.71005 0.28995 0.28995
1 0.27995 0.27995
0.26995 0.26995 0.26995
CELLS 0 0
CELL_TYPES 0
POINT_DATA 26
SCALARS m double
LOOKUP_TABLE default
1
1
1
1
1
1
1
1
1
1
1
1
1
1
1
1
1
1
1
1
1
1
1
1
1
1
VECTORS v double
-1 -1 -1
0 -1 -1
1 -1 -1
-1 0 -1
0 0 -1
1 0 -1
-1 1 -1
0 1 -1
1 1 -1
-1 -1 0
0 -1 0
1 -1 0
-1 0 0
1 0 0
-1 1 0
0 1 0
1 1 0
-1 -1 1
0 -1 1
1 -1 1
-1 0 1
0 0 1
1 0 1
-1 1 1
0 1 1
1 1 1
