# vtk DataFile Version 4.0
hesp visualization file
ASCII
DATASET UNSTRUCTURED_GRID
POINTS 26 double
0.19005 0.19005 0.19005
1 0.20005 0.20005
1.78995 0.21005 0.21005
0.22005 1 0.22005
1 1 0.23005
1.75995 1 0.24005
0.25005 1.74995 0.25005
1 1.73995 0.26005
1.72995 1.72995 0.27005
0.28005 0.28005 1
1 0.29005 1
1.69995 0.30005 1
0.31005 1 1
1.67995 1 1
0.33005 1.66995 1
1 1.65995 1
1.64995 1.64995 1
0.36005 0.36005 1.63995
1 0.37005 1.62995
1.61995 0.38005 1.61995
0.39005 1 1.60995
1 1 1.59995
1.58995 1 1.58995
0.42005 1.57995 1.57995
1 1.56995 1.56995
1.55995 1.55995 1.55995
CELLS 0 0
CELL_TYPES 0
POINT_DATA 26
SCALARS m double
LOOKUP_TABLE default
1
1
1
1
1
1
1
1
1
1
1
1
1
1
1
1
1
1
1
1
1
1
1
1
1
1
VECTORS v double
-1 -1 -1
0 -1 -1
1 -1 -1
-1 0 -1
0 0 -1
1 0 -1
-1 1 -1
0 1 -1
1 1 -1
-1 -1 0
0 -1 0
1 -1 0
-1 0 0
1 0 0
-1 1 0
0 1 0
1 1 0
-1 -1 1
0 -1 1
1 -1 1
-1 0 1
0 0 1
1 0 1
-1 1 1
0 1 1
1 1 1
