# vtk DataFile Version 4.0
hesp visualization file
ASCII
DATASET UNSTRUCTURED_GRID
POINTS 26 double
1.20005 1.20005 1.20005
1 1.21005 1.21005
0.77995 1.22005 1.22005
1.23005 1 1.23005
1 1 1.24005
0.74995 1 1.25005
1.26005 0.73995 1.26005
1 0.72995 1.27005
0.71995 0.71995 1.28005
1.29005 1.29005 1
1 1.30005 1
0.68995 1.31005 1
1.32005 1 1
0.66995 1 1
1.34005 0.65995 1
1 0.64995 1
0.63995 0.63995 1
1.37005 1.37005 0.62995
1 1.38005 0.61995
0.60995 1.39005 0.60995
1.40005 1 0.59995
1 1 0.58995
0.57995 1 0.57995
1.43005 0.56995 0.56995
1 0.55995 0.55995
0.54995 0.54995 0.54995
CELLS 0 0
CELL_TYPES 0
POINT_DATA 26
SCALARS m double
LOOKUP_TABLE default
1
1
1
1
1
1
1
1
1
1
1
1
1
1
1
1
1
1
1
1
1
1
1
1
1
1
VECTORS v double
-1 -1 -1
0 -1 -1
1 -1 -1
-1 0 -1
0 0 -1
1 0 -1
-1 1 -1
0 1 -1
1 1 -1
-1 -1 0
0 -1 0
1 -1 0
-1 0 0
1 0 0
-1 1 0
0 1 0
1 1 0
-1 -1 1
0 -1 1
1 -1 1
-1 0 1
0 0 1
1 0 1
-1 1 1
0 1 1
1 1 1
