# vtk DataFile Version 4.0
hesp visualization file
ASCII
DATASET UNSTRUCTURED_GRID
POINTS 26 double
1.45005 1.45005 1.45005
1 1.46005 1.46005
0.52995 1.47005 1.47005
1.48005 1 1.48005
1 1 1.49005
0.49995 1 1.50005
1.51005 0.48995 1.51005
1 0.47995 1.52005
0.46995 0.46995 1.53005
1.54005 1.54005 1
1 1.55005 1
0.43995 1.56005 1
1.57005 1 1
0.41995 1 1
1.59005 0.40995 1
1 0.39995 1
0.38995 0.38995 1
1.62005 1.62005 0.37995
1 1.63005 0.36995
0.35995 1.64005 0.35995
1.65005 1 0.34995
1 1 0.33995
0.32995 1 0.32995
1.68005 0.31995 0.31995
1 0.30995 0.30995
0.29995 0.29995 0.29995
CELLS 0 0
CELL_TYPES 0
POINT_DATA 26
SCALARS m double
LOOKUP_TABLE default
1
1
1
1
1
1
1
1
1
1
1
1
1
1
1
1
1
1
1
1
1
1
1
1
1
1
VECTORS v double
-1 -1 -1
0 -1 -1
1 -1 -1
-1 0 -1
0 0 -1
1 0 -1
-1 1 -1
0 1 -1
1 1 -1
-1 -1 0
0 -1 0
1 -1 0
-1 0 0
1 0 0
-1 1 0
0 1 0
1 1 0
-1 -1 1
0 -1 1
1 -1 1
-1 0 1
0 0 1
1 0 1
-1 1 1
0 1 1
1 1 1
