# vtk DataFile Version 4.0
hesp visualization file
ASCII
DATASET UNSTRUCTURED_GRID
POINTS 26 double
1.11005 1.11005 1.11005
1 1.12005 1.12005
0.86995 1.13005 1.13005
1.14005 1 1.14005
1 1 1.15005
0.83995 1 1.16005
1.17005 0.82995 1.17005
1 0.81995 1.18005
0.80995 0.80995 1.19005
1.20005 1.20005 1
1 1.21005 1
0.77995 1.22005 1
1.23005 1 1
0.75995 1 1
1.25005 0.74995 1
1 0.73995 1
0.72995 0.72995 1
1.28005 1.28005 0.71995
1 1.29005 0.70995
0.69995 1.30005 0.69995
1.31005 1 0.68995
1 1 0.67995
0.66995 1 0.66995
1.34005 0.65995 0.65995
1 0.64995 0.64995
0.63995 0.63995 0.63995
CELLS 0 0
CELL_TYPES 0
POINT_DATA 26
SCALARS m double
LOOKUP_TABLE default
1
1
1
1
1
1
1
1
1
1
1
1
1
1
1
1
1
1
1
1
1
1
1
1
1
1
VECTORS v double
-1 -1 -1
0 -1 -1
1 -1 -1
-1 0 -1
0 0 -1
1 0 -1
-1 1 -1
0 1 -1
1 1 -1
-1 -1 0
0 -1 0
1 -1 0
-1 0 0
1 0 0
-1 1 0
0 1 0
1 1 0
-1 -1 1
0 -1 1
1 -1 1
-1 0 1
0 0 1
1 0 1
-1 1 1
0 1 1
1 1 1
