# vtk DataFile Version 4.0
hesp visualization file
ASCII
DATASET UNSTRUCTURED_GRID
POINTS 26 double
0.18005 0.18005 0.18005
1 0.19005 0.19005
1.79995 0.20005 0.20005
0.21005 1 0.21005
1 1 0.22005
1.76995 1 0.23005
0.24005 1.75995 0.24005
1 1.74995 0.25005
1.73995 1.73995 0.26005
0.27005 0.27005 1
1 0.28005 1
1.70995 0.29005 1
0.30005 1 1
1.68995 1 1
0.32005 1.67995 1
1 1.66995 1
1.65995 1.65995 1
0.35005 0.35005 1.64995
1 0.36005 1.63995
1.62995 0.37005 1.62995
0.38005 1 1.61995
1 1 1.60995
1.59995 1 1.59995
0.41005 1.58995 1.58995
1 1.57995 1.57995
1.56995 1.56995 1.56995
CELLS 0 0
CELL_TYPES 0
POINT_DATA 26
SCALARS m double
LOOKUP_TABLE default
1
1
1
1
1
1
1
1
1
1
1
1
1
1
1
1
1
1
1
1
1
1
1
1
1
1
VECTORS v double
-1 -1 -1
0 -1 -1
1 -1 -1
-1 0 -1
0 0 -1
1 0 -1
-1 1 -1
0 1 -1
1 1 -1
-1 -1 0
0 -1 0
1 -1 0
-1 0 0
1 0 0
-1 1 0
0 1 0
1 1 0
-1 -1 1
0 -1 1
1 -1 1
-1 0 1
0 0 1
1 0 1
-1 1 1
0 1 1
1 1 1
