# vtk DataFile Version 4.0
hesp visualization file
ASCII
DATASET UNSTRUCTURED_GRID
POINTS 26 double
1.92005 1.92005 1.92005
1 1.93005 1.93005
0.05995 1.94005 1.94005
1.95005 1 1.95005
1 1 1.96005
0.02995 1 1.97005
1.98005 0.01995 1.98005
1 0.00995 1.99005
1.99995 1.99995 5e-05
0.01005 0.01005 1
1 0.02005 1
1.96995 0.03005 1
0.04005 1 1
1.94995 1 1
0.06005 1.93995 1
1 1.92995 1
1.91995 1.91995 1
0.09005 0.09005 1.90995
1 0.10005 1.89995
1.88995 0.11005 1.88995
0.12005 1 1.87995
1 1 1.86995
1.85995 1 1.85995
0.15005 1.84995 1.84995
1 1.83995 1.83995
1.82995 1.82995 1.82995
CELLS 0 0
CELL_TYPES 0
POINT_DATA 26
SCALARS m double
LOOKUP_TABLE default
1
1
1
1
1
1
1
1
1
1
1
1
1
1
1
1
1
1
1
1
1
1
1
1
1
1
VECTORS v double
-1 -1 -1
0 -1 -1
1 -1 -1
-1 0 -1
0 0 -1
1 0 -1
-1 1 -1
0 1 -1
1 1 -1
-1 -1 0
0 -1 0
1 -1 0
-1 0 0
1 0 0
-1 1 0
0 1 0
1 1 0
-1 -1 1
0 -1 1
1 -1 1
-1 0 1
0 0 1
1 0 1
-1 1 1
0 1 1
1 1 1
