# vtk DataFile Version 4.0
hesp visualization file
ASCII
DATASET UNSTRUCTURED_GRID
POINTS 26 double
0.34005 0.34005 0.34005
1 0.35005 0.35005
1.63995 0.36005 0.36005
0.37005 1 0.37005
1 1 0.38005
1.60995 1 0.39005
0.40005 1.59995 0.40005
1 1.58995 0.41005
1.57995 1.57995 0.42005
0.43005 0.43005 1
1 0.44005 1
1.54995 0.45005 1
0.46005 1 1
1.52995 1 1
0.48005 1.51995 1
1 1.50995 1
1.49995 1.49995 1
0.51005 0.51005 1.48995
1 0.52005 1.47995
1.46995 0.53005 1.46995
0.54005 1 1.45995
1 1 1.44995
1.43995 1 1.43995
0.57005 1.42995 1.42995
1 1.41995 1.41995
1.40995 1.40995 1.40995
CELLS 0 0
CELL_TYPES 0
POINT_DATA 26
SCALARS m double
LOOKUP_TABLE default
1
1
1
1
1
1
1
1
1
1
1
1
1
1
1
1
1
1
1
1
1
1
1
1
1
1
VECTORS v double
-1 -1 -1
0 -1 -1
1 -1 -1
-1 0 -1
0 0 -1
1 0 -1
-1 1 -1
0 1 -1
1 1 -1
-1 -1 0
0 -1 0
1 -1 0
-1 0 0
1 0 0
-1 1 0
0 1 0
1 1 0
-1 -1 1
0 -1 1
1 -1 1
-1 0 1
0 0 1
1 0 1
-1 1 1
0 1 1
1 1 1
