# vtk DataFile Version 4.0
hesp visualization file
ASCII
DATASET UNSTRUCTURED_GRID
POINTS 26 double
0.73005 0.73005 0.73005
1 0.74005 0.74005
1.24995 0.75005 0.75005
0.76005 1 0.76005
1 1 0.77005
1.21995 1 0.78005
0.79005 1.20995 0.79005
1 1.19995 0.80005
1.18995 1.18995 0.81005
0.82005 0.82005 1
1 0.83005 1
1.15995 0.84005 1
0.85005 1 1
1.13995 1 1
0.87005 1.12995 1
1 1.11995 1
1.10995 1.10995 1
0.90005 0.90005 1.09995
1 0.91005 1.08995
1.07995 0.92005 1.07995
0.93005 1 1.06995
1 1 1.05995
1.04995 1 1.04995
0.96005 1.03995 1.03995
1 1.02995 1.02995
1.01995 1.01995 1.01995
CELLS 0 0
CELL_TYPES 0
POINT_DATA 26
SCALARS m double
LOOKUP_TABLE default
1
1
1
1
1
1
1
1
1
1
1
1
1
1
1
1
1
1
1
1
1
1
1
1
1
1
VECTORS v double
-1 -1 -1
0 -1 -1
1 -1 -1
-1 0 -1
0 0 -1
1 0 -1
-1 1 -1
0 1 -1
1 1 -1
-1 -1 0
0 -1 0
1 -1 0
-1 0 0
1 0 0
-1 1 0
0 1 0
1 1 0
-1 -1 1
0 -1 1
1 -1 1
-1 0 1
0 0 1
1 0 1
-1 1 1
0 1 1
1 1 1
