# vtk DataFile Version 4.0
hesp visualization file
ASCII
DATASET UNSTRUCTURED_GRID
POINTS 26 double
0.96005 0.96005 0.96005
1 0.97005 0.97005
1.01995 0.98005 0.98005
0.99005 1 0.99005
1 1 1.00005
0.98995 1 1.01005
1.02005 0.97995 1.02005
1 0.96995 1.03005
0.95995 0.95995 1.04005
1.05005 1.05005 1
1 1.06005 1
0.92995 1.07005 1
1.08005 1 1
0.90995 1 1
1.10005 0.89995 1
1 0.88995 1
0.87995 0.87995 1
1.13005 1.13005 0.86995
1 1.14005 0.85995
0.84995 1.15005 0.84995
1.16005 1 0.83995
1 1 0.82995
0.81995 1 0.81995
1.19005 0.80995 0.80995
1 0.79995 0.79995
0.78995 0.78995 0.78995
CELLS 0 0
CELL_TYPES 0
POINT_DATA 26
SCALARS m double
LOOKUP_TABLE default
1
1
1
1
1
1
1
1
1
1
1
1
1
1
1
1
1
1
1
1
1
1
1
1
1
1
VECTORS v double
-1 -1 -1
0 -1 -1
1 -1 -1
-1 0 -1
0 0 -1
1 0 -1
-1 1 -1
0 1 -1
1 1 -1
-1 -1 0
0 -1 0
1 -1 0
-1 0 0
1 0 0
-1 1 0
0 1 0
1 1 0
-1 -1 1
0 -1 1
1 -1 1
-1 0 1
0 0 1
1 0 1
-1 1 1
0 1 1
1 1 1
