# vtk DataFile Version 4.0
hesp visualization file
ASCII
DATASET UNSTRUCTURED_GRID
POINTS 26 double
1.38005 1.38005 1.38005
1 1.39005 1.39005
0.59995 1.40005 1.40005
1.41005 1 1.41005
1 1 1.42005
0.56995 1 1.43005
1.44005 0.55995 1.44005
1 0.54995 1.45005
0.53995 0.53995 1.46005
1.47005 1.47005 1
1 1.48005 1
0.50995 1.49005 1
1.50005 1 1
0.48995 1 1
1.52005 0.47995 1
1 0.46995 1
0.45995 0.45995 1
1.55005 1.55005 0.44995
1 1.56005 0.43995
0.42995 1.57005 0.42995
1.58005 1 0.41995
1 1 0.40995
0.39995 1 0.39995
1.61005 0.38995 0.38995
1 0.37995 0.37995
0.36995 0.36995 0.36995
CELLS 0 0
CELL_TYPES 0
POINT_DATA 26
SCALARS m double
LOOKUP_TABLE default
1
1
1
1
1
1
1
1
1
1
1
1
1
1
1
1
1
1
1
1
1
1
1
1
1
1
VECTORS v double
-1 -1 -1
0 -1 -1
1 -1 -1
-1 0 -1
0 0 -1
1 0 -1
-1 1 -1
0 1 -1
1 1 -1
-1 -1 0
0 -1 0
1 -1 0
-1 0 0
1 0 0
-1 1 0
0 1 0
1 1 0
-1 -1 1
0 -1 1
1 -1 1
-1 0 1
0 0 1
1 0 1
-1 1 1
0 1 1
1 1 1
