# vtk DataFile Version 4.0
hesp visualization file
ASCII
DATASET UNSTRUCTURED_GRID
POINTS 26 double
0.74005 0.74005 0.74005
1 0.75005 0.75005
1.23995 0.76005 0.76005
0.77005 1 0.77005
1 1 0.78005
1.20995 1 0.79005
0.80005 1.19995 0.80005
1 1.18995 0.81005
1.17995 1.17995 0.82005
0.83005 0.83005 1
1 0.84005 1
1.14995 0.85005 1
0.86005 1 1
1.12995 1 1
0.88005 1.11995 1
1 1.10995 1
1.09995 1.09995 1
0.91005 0.91005 1.08995
1 0.92005 1.07995
1.06995 0.93005 1.06995
0.94005 1 1.05995
1 1 1.04995
1.03995 1 1.03995
0.97005 1.02995 1.02995
1 1.01995 1.01995
1.00995 1.00995 1.00995
CELLS 0 0
CELL_TYPES 0
POINT_DATA 26
SCALARS m double
LOOKUP_TABLE default
1
1
1
1
1
1
1
1
1
1
1
1
1
1
1
1
1
1
1
1
1
1
1
1
1
1
VECTORS v double
-1 -1 -1
0 -1 -1
1 -1 -1
-1 0 -1
0 0 -1
1 0 -1
-1 1 -1
0 1 -1
1 1 -1
-1 -1 0
0 -1 0
1 -1 0
-1 0 0
1 0 0
-1 1 0
0 1 0
1 1 0
-1 -1 1
0 -1 1
1 -1 1
-1 0 1
0 0 1
1 0 1
-1 1 1
0 1 1
1 1 1
