# vtk DataFile Version 4.0
hesp visualization file
ASCII
DATASET UNSTRUCTURED_GRID
POINTS 26 double
0.75005 0.75005 0.75005
1 0.76005 0.76005
1.22995 0.77005 0.77005
0.78005 1 0.78005
1 1 0.79005
1.19995 1 0.80005
0.81005 1.18995 0.81005
1 1.17995 0.82005
1.16995 1.16995 0.83005
0.84005 0.84005 1
1 0.85005 1
1.13995 0.86005 1
0.87005 1 1
1.11995 1 1
0.89005 1.10995 1
1 1.09995 1
1.08995 1.08995 1
0.92005 0.92005 1.07995
1 0.93005 1.06995
1.05995 0.94005 1.05995
0.95005 1 1.04995
1 1 1.03995
1.02995 1 1.02995
0.98005 1.01995 1.01995
1 1.00995 1.00995
0.99995 0.99995 0.99995
CELLS 0 0
CELL_TYPES 0
POINT_DATA 26
SCALARS m double
LOOKUP_TABLE default
1
1
1
1
1
1
1
1
1
1
1
1
1
1
1
1
1
1
1
1
1
1
1
1
1
1
VECTORS v double
-1 -1 -1
0 -1 -1
1 -1 -1
-1 0 -1
0 0 -1
1 0 -1
-1 1 -1
0 1 -1
1 1 -1
-1 -1 0
0 -1 0
1 -1 0
-1 0 0
1 0 0
-1 1 0
0 1 0
1 1 0
-1 -1 1
0 -1 1
1 -1 1
-1 0 1
0 0 1
1 0 1
-1 1 1
0 1 1
1 1 1
