# vtk DataFile Version 4.0
hesp visualization file
ASCII
DATASET UNSTRUCTURED_GRID
POINTS 26 double
0.71005 0.71005 0.71005
1 0.72005 0.72005
1.26995 0.73005 0.73005
0.74005 1 0.74005
1 1 0.75005
1.23995 1 0.76005
0.77005 1.22995 0.77005
1 1.21995 0.78005
1.20995 1.20995 0.79005
0.80005 0.80005 1
1 0.81005 1
1.17995 0.82005 1
0.83005 1 1
1.15995 1 1
0.85005 1.14995 1
1 1.13995 1
1.12995 1.12995 1
0.88005 0.88005 1.11995
1 0.89005 1.10995
1.09995 0.90005 1.09995
0.91005 1 1.08995
1 1 1.07995
1.06995 1 1.06995
0.94005 1.05995 1.05995
1 1.04995 1.04995
1.03995 1.03995 1.03995
CELLS 0 0
CELL_TYPES 0
POINT_DATA 26
SCALARS m double
LOOKUP_TABLE default
1
1
1
1
1
1
1
1
1
1
1
1
1
1
1
1
1
1
1
1
1
1
1
1
1
1
VECTORS v double
-1 -1 -1
0 -1 -1
1 -1 -1
-1 0 -1
0 0 -1
1 0 -1
-1 1 -1
0 1 -1
1 1 -1
-1 -1 0
0 -1 0
1 -1 0
-1 0 0
1 0 0
-1 1 0
0 1 0
1 1 0
-1 -1 1
0 -1 1
1 -1 1
-1 0 1
0 0 1
1 0 1
-1 1 1
0 1 1
1 1 1
