# vtk DataFile Version 4.0
hesp visualization file
ASCII
DATASET UNSTRUCTURED_GRID
POINTS 26 double
0.64005 0.64005 0.64005
1 0.65005 0.65005
1.33995 0.66005 0.66005
0.67005 1 0.67005
1 1 0.68005
1.30995 1 0.69005
0.70005 1.29995 0.70005
1 1.28995 0.71005
1.27995 1.27995 0.72005
0.73005 0.73005 1
1 0.74005 1
1.24995 0.75005 1
0.76005 1 1
1.22995 1 1
0.78005 1.21995 1
1 1.20995 1
1.19995 1.19995 1
0.81005 0.81005 1.18995
1 0.82005 1.17995
1.16995 0.83005 1.16995
0.84005 1 1.15995
1 1 1.14995
1.13995 1 1.13995
0.87005 1.12995 1.12995
1 1.11995 1.11995
1.10995 1.10995 1.10995
CELLS 0 0
CELL_TYPES 0
POINT_DATA 26
SCALARS m double
LOOKUP_TABLE default
1
1
1
1
1
1
1
1
1
1
1
1
1
1
1
1
1
1
1
1
1
1
1
1
1
1
VECTORS v double
-1 -1 -1
0 -1 -1
1 -1 -1
-1 0 -1
0 0 -1
1 0 -1
-1 1 -1
0 1 -1
1 1 -1
-1 -1 0
0 -1 0
1 -1 0
-1 0 0
1 0 0
-1 1 0
0 1 0
1 1 0
-1 -1 1
0 -1 1
1 -1 1
-1 0 1
0 0 1
1 0 1
-1 1 1
0 1 1
1 1 1
