# vtk DataFile Version 4.0
hesp visualization file
ASCII
DATASET UNSTRUCTURED_GRID
POINTS 26 double
0.63005 0.63005 0.63005
1 0.64005 0.64005
1.34995 0.65005 0.65005
0.66005 1 0.66005
1 1 0.67005
1.31995 1 0.68005
0.69005 1.30995 0.69005
1 1.29995 0.70005
1.28995 1.28995 0.71005
0.72005 0.72005 1
1 0.73005 1
1.25995 0.74005 1
0.75005 1 1
1.23995 1 1
0.77005 1.22995 1
1 1.21995 1
1.20995 1.20995 1
0.80005 0.80005 1.19995
1 0.81005 1.18995
1.17995 0.82005 1.17995
0.83005 1 1.16995
1 1 1.15995
1.14995 1 1.14995
0.86005 1.13995 1.13995
1 1.12995 1.12995
1.11995 1.11995 1.11995
CELLS 0 0
CELL_TYPES 0
POINT_DATA 26
SCALARS m double
LOOKUP_TABLE default
1
1
1
1
1
1
1
1
1
1
1
1
1
1
1
1
1
1
1
1
1
1
1
1
1
1
VECTORS v double
-1 -1 -1
0 -1 -1
1 -1 -1
-1 0 -1
0 0 -1
1 0 -1
-1 1 -1
0 1 -1
1 1 -1
-1 -1 0
0 -1 0
1 -1 0
-1 0 0
1 0 0
-1 1 0
0 1 0
1 1 0
-1 -1 1
0 -1 1
1 -1 1
-1 0 1
0 0 1
1 0 1
-1 1 1
0 1 1
1 1 1
