# vtk DataFile Version 4.0
hesp visualization file
ASCII
DATASET UNSTRUCTURED_GRID
POINTS 26 double
0.65005 0.65005 0.65005
1 0.66005 0.66005
1.32995 0.67005 0.67005
0.68005 1 0.68005
1 1 0.69005
1.29995 1 0.70005
0.71005 1.28995 0.71005
1 1.27995 0.72005
1.26995 1.26995 0.73005
0.74005 0.74005 1
1 0.75005 1
1.23995 0.76005 1
0.77005 1 1
1.21995 1 1
0.79005 1.20995 1
1 1.19995 1
1.18995 1.18995 1
0.82005 0.82005 1.17995
1 0.83005 1.16995
1.15995 0.84005 1.15995
0.85005 1 1.14995
1 1 1.13995
1.12995 1 1.12995
0.88005 1.11995 1.11995
1 1.10995 1.10995
1.09995 1.09995 1.09995
CELLS 0 0
CELL_TYPES 0
POINT_DATA 26
SCALARS m double
LOOKUP_TABLE default
1
1
1
1
1
1
1
1
1
1
1
1
1
1
1
1
1
1
1
1
1
1
1
1
1
1
VECTORS v double
-1 -1 -1
0 -1 -1
1 -1 -1
-1 0 -1
0 0 -1
1 0 -1
-1 1 -1
0 1 -1
1 1 -1
-1 -1 0
0 -1 0
1 -1 0
-1 0 0
1 0 0
-1 1 0
0 1 0
1 1 0
-1 -1 1
0 -1 1
1 -1 1
-1 0 1
0 0 1
1 0 1
-1 1 1
0 1 1
1 1 1
