# vtk DataFile Version 4.0
hesp visualization file
ASCII
DATASET UNSTRUCTURED_GRID
POINTS 26 double
0.99005 0.99005 0.99005
1 1.00005 1.00005
0.98995 1.01005 1.01005
1.02005 1 1.02005
1 1 1.03005
0.95995 1 1.04005
1.05005 0.94995 1.05005
1 0.93995 1.06005
0.92995 0.92995 1.07005
1.08005 1.08005 1
1 1.09005 1
0.89995 1.10005 1
1.11005 1 1
0.87995 1 1
1.13005 0.86995 1
1 0.85995 1
0.84995 0.84995 1
1.16005 1.16005 0.83995
1 1.17005 0.82995
0.81995 1.18005 0.81995
1.19005 1 0.80995
1 1 0.79995
0.78995 1 0.78995
1.22005 0.77995 0.77995
1 0.76995 0.76995
0.75995 0.75995 0.75995
CELLS 0 0
CELL_TYPES 0
POINT_DATA 26
SCALARS m double
LOOKUP_TABLE default
1
1
1
1
1
1
1
1
1
1
1
1
1
1
1
1
1
1
1
1
1
1
1
1
1
1
VECTORS v double
-1 -1 -1
0 -1 -1
1 -1 -1
-1 0 -1
0 0 -1
1 0 -1
-1 1 -1
0 1 -1
1 1 -1
-1 -1 0
0 -1 0
1 -1 0
-1 0 0
1 0 0
-1 1 0
0 1 0
1 1 0
-1 -1 1
0 -1 1
1 -1 1
-1 0 1
0 0 1
1 0 1
-1 1 1
0 1 1
1 1 1
