# vtk DataFile Version 4.0
hesp visualization file
ASCII
DATASET UNSTRUCTURED_GRID
POINTS 26 double
1.66005 1.66005 1.66005
1 1.67005 1.67005
0.31995 1.68005 1.68005
1.69005 1 1.69005
1 1 1.70005
0.28995 1 1.71005
1.72005 0.27995 1.72005
1 0.26995 1.73005
0.25995 0.25995 1.74005
1.75005 1.75005 1
1 1.76005 1
0.22995 1.77005 1
1.78005 1 1
0.20995 1 1
1.80005 0.19995 1
1 0.18995 1
0.17995 0.17995 1
1.83005 1.83005 0.16995
1 1.84005 0.15995
0.14995 1.85005 0.14995
1.86005 1 0.13995
1 1 0.12995
0.11995 1 0.11995
1.89005 0.10995 0.10995
1 0.09995 0.09995
0.08995 0.08995 0.08995
CELLS 0 0
CELL_TYPES 0
POINT_DATA 26
SCALARS m double
LOOKUP_TABLE default
1
1
1
1
1
1
1
1
1
1
1
1
1
1
1
1
1
1
1
1
1
1
1
1
1
1
VECTORS v double
-1 -1 -1
0 -1 -1
1 -1 -1
-1 0 -1
0 0 -1
1 0 -1
-1 1 -1
0 1 -1
1 1 -1
-1 -1 0
0 -1 0
1 -1 0
-1 0 0
1 0 0
-1 1 0
0 1 0
1 1 0
-1 -1 1
0 -1 1
1 -1 1
-1 0 1
0 0 1
1 0 1
-1 1 1
0 1 1
1 1 1
