# vtk DataFile Version 4.0
hesp visualization file
ASCII
DATASET UNSTRUCTURED_GRID
POINTS 26 double
0.32005 0.32005 0.32005
1 0.33005 0.33005
1.65995 0.34005 0.34005
0.35005 1 0.35005
1 1 0.36005
1.62995 1 0.37005
0.38005 1.61995 0.38005
1 1.60995 0.39005
1.59995 1.59995 0.40005
0.41005 0.41005 1
1 0.42005 1
1.56995 0.43005 1
0.44005 1 1
1.54995 1 1
0.46005 1.53995 1
1 1.52995 1
1.51995 1.51995 1
0.49005 0.49005 1.50995
1 0.50005 1.49995
1.48995 0.51005 1.48995
0.52005 1 1.47995
1 1 1.46995
1.45995 1 1.45995
0.55005 1.44995 1.44995
1 1.43995 1.43995
1.42995 1.42995 1.42995
CELLS 0 0
CELL_TYPES 0
POINT_DATA 26
SCALARS m double
LOOKUP_TABLE default
1
1
1
1
1
1
1
1
1
1
1
1
1
1
1
1
1
1
1
1
1
1
1
1
1
1
VECTORS v double
-1 -1 -1
0 -1 -1
1 -1 -1
-1 0 -1
0 0 -1
1 0 -1
-1 1 -1
0 1 -1
1 1 -1
-1 -1 0
0 -1 0
1 -1 0
-1 0 0
1 0 0
-1 1 0
0 1 0
1 1 0
-1 -1 1
0 -1 1
1 -1 1
-1 0 1
0 0 1
1 0 1
-1 1 1
0 1 1
1 1 1
