# vtk DataFile Version 4.0
hesp visualization file
ASCII
DATASET UNSTRUCTURED_GRID
POINTS 26 double
0.48005 0.48005 0.48005
1 0.49005 0.49005
1.49995 0.50005 0.50005
0.51005 1 0.51005
1 1 0.52005
1.46995 1 0.53005
0.54005 1.45995 0.54005
1 1.44995 0.55005
1.43995 1.43995 0.56005
0.57005 0.57005 1
1 0.58005 1
1.40995 0.59005 1
0.60005 1 1
1.38995 1 1
0.62005 1.37995 1
1 1.36995 1
1.35995 1.35995 1
0.65005 0.65005 1.34995
1 0.66005 1.33995
1.32995 0.67005 1.32995
0.68005 1 1.31995
1 1 1.30995
1.29995 1 1.29995
0.71005 1.28995 1.28995
1 1.27995 1.27995
1.26995 1.26995 1.26995
CELLS 0 0
CELL_TYPES 0
POINT_DATA 26
SCALARS m double
LOOKUP_TABLE default
1
1
1
1
1
1
1
1
1
1
1
1
1
1
1
1
1
1
1
1
1
1
1
1
1
1
VECTORS v double
-1 -1 -1
0 -1 -1
1 -1 -1
-1 0 -1
0 0 -1
1 0 -1
-1 1 -1
0 1 -1
1 1 -1
-1 -1 0
0 -1 0
1 -1 0
-1 0 0
1 0 0
-1 1 0
0 1 0
1 1 0
-1 -1 1
0 -1 1
1 -1 1
-1 0 1
0 0 1
1 0 1
-1 1 1
0 1 1
1 1 1
