# vtk DataFile Version 4.0
hesp visualization file
ASCII
DATASET UNSTRUCTURED_GRID
POINTS 26 double
0.31005 0.31005 0.31005
1 0.32005 0.32005
1.66995 0.33005 0.33005
0.34005 1 0.34005
1 1 0.35005
1.63995 1 0.36005
0.37005 1.62995 0.37005
1 1.61995 0.38005
1.60995 1.60995 0.39005
0.40005 0.40005 1
1 0.41005 1
1.57995 0.42005 1
0.43005 1 1
1.55995 1 1
0.45005 1.54995 1
1 1.53995 1
1.52995 1.52995 1
0.48005 0.48005 1.51995
1 0.49005 1.50995
1.49995 0.50005 1.49995
0.51005 1 1.48995
1 1 1.47995
1.46995 1 1.46995
0.54005 1.45995 1.45995
1 1.44995 1.44995
1.43995 1.43995 1.43995
CELLS 0 0
CELL_TYPES 0
POINT_DATA 26
SCALARS m double
LOOKUP_TABLE default
1
1
1
1
1
1
1
1
1
1
1
1
1
1
1
1
1
1
1
1
1
1
1
1
1
1
VECTORS v double
-1 -1 -1
0 -1 -1
1 -1 -1
-1 0 -1
0 0 -1
1 0 -1
-1 1 -1
0 1 -1
1 1 -1
-1 -1 0
0 -1 0
1 -1 0
-1 0 0
1 0 0
-1 1 0
0 1 0
1 1 0
-1 -1 1
0 -1 1
1 -1 1
-1 0 1
0 0 1
1 0 1
-1 1 1
0 1 1
1 1 1
