# vtk DataFile Version 4.0
hesp visualization file
ASCII
DATASET UNSTRUCTURED_GRID
POINTS 26 double
1.03005 1.03005 1.03005
1 1.04005 1.04005
0.94995 1.05005 1.05005
1.06005 1 1.06005
1 1 1.07005
0.91995 1 1.08005
1.09005 0.90995 1.09005
1 0.89995 1.10005
0.88995 0.88995 1.11005
1.12005 1.12005 1
1 1.13005 1
0.85995 1.14005 1
1.15005 1 1
0.83995 1 1
1.17005 0.82995 1
1 0.81995 1
0.80995 0.80995 1
1.20005 1.20005 0.79995
1 1.21005 0.78995
0.77995 1.22005 0.77995
1.23005 1 0.76995
1 1 0.75995
0.74995 1 0.74995
1.26005 0.73995 0.73995
1 0.72995 0.72995
0.71995 0.71995 0.71995
CELLS 0 0
CELL_TYPES 0
POINT_DATA 26
SCALARS m double
LOOKUP_TABLE default
1
1
1
1
1
1
1
1
1
1
1
1
1
1
1
1
1
1
1
1
1
1
1
1
1
1
VECTORS v double
-1 -1 -1
0 -1 -1
1 -1 -1
-1 0 -1
0 0 -1
1 0 -1
-1 1 -1
0 1 -1
1 1 -1
-1 -1 0
0 -1 0
1 -1 0
-1 0 0
1 0 0
-1 1 0
0 1 0
1 1 0
-1 -1 1
0 -1 1
1 -1 1
-1 0 1
0 0 1
1 0 1
-1 1 1
0 1 1
1 1 1
