# vtk DataFile Version 4.0
hesp visualization file
ASCII
DATASET UNSTRUCTURED_GRID
POINTS 26 double
0.54005 0.54005 0.54005
1 0.55005 0.55005
1.43995 0.56005 0.56005
0.57005 1 0.57005
1 1 0.58005
1.40995 1 0.59005
0.60005 1.39995 0.60005
1 1.38995 0.61005
1.37995 1.37995 0.62005
0.63005 0.63005 1
1 0.64005 1
1.34995 0.65005 1
0.66005 1 1
1.32995 1 1
0.68005 1.31995 1
1 1.30995 1
1.29995 1.29995 1
0.71005 0.71005 1.28995
1 0.72005 1.27995
1.26995 0.73005 1.26995
0.74005 1 1.25995
1 1 1.24995
1.23995 1 1.23995
0.77005 1.22995 1.22995
1 1.21995 1.21995
1.20995 1.20995 1.20995
CELLS 0 0
CELL_TYPES 0
POINT_DATA 26
SCALARS m double
LOOKUP_TABLE default
1
1
1
1
1
1
1
1
1
1
1
1
1
1
1
1
1
1
1
1
1
1
1
1
1
1
VECTORS v double
-1 -1 -1
0 -1 -1
1 -1 -1
-1 0 -1
0 0 -1
1 0 -1
-1 1 -1
0 1 -1
1 1 -1
-1 -1 0
0 -1 0
1 -1 0
-1 0 0
1 0 0
-1 1 0
0 1 0
1 1 0
-1 -1 1
0 -1 1
1 -1 1
-1 0 1
0 0 1
1 0 1
-1 1 1
0 1 1
1 1 1
