# vtk DataFile Version 4.0
hesp visualization file
ASCII
DATASET UNSTRUCTURED_GRID
POINTS 26 double
0.09005 0.09005 0.09005
1 0.10005 0.10005
1.88995 0.11005 0.11005
0.12005 1 0.12005
1 1 0.13005
1.85995 1 0.14005
0.15005 1.84995 0.15005
1 1.83995 0.16005
1.82995 1.82995 0.17005
0.18005 0.18005 1
1 0.19005 1
1.79995 0.20005 1
0.21005 1 1
1.77995 1 1
0.23005 1.76995 1
1 1.75995 1
1.74995 1.74995 1
0.26005 0.26005 1.73995
1 0.27005 1.72995
1.71995 0.28005 1.71995
0.29005 1 1.70995
1 1 1.69995
1.68995 1 1.68995
0.32005 1.67995 1.67995
1 1.66995 1.66995
1.65995 1.65995 1.65995
CELLS 0 0
CELL_TYPES 0
POINT_DATA 26
SCALARS m double
LOOKUP_TABLE default
1
1
1
1
1
1
1
1
1
1
1
1
1
1
1
1
1
1
1
1
1
1
1
1
1
1
VECTORS v double
-1 -1 -1
0 -1 -1
1 -1 -1
-1 0 -1
0 0 -1
1 0 -1
-1 1 -1
0 1 -1
1 1 -1
-1 -1 0
0 -1 0
1 -1 0
-1 0 0
1 0 0
-1 1 0
0 1 0
1 1 0
-1 -1 1
0 -1 1
1 -1 1
-1 0 1
0 0 1
1 0 1
-1 1 1
0 1 1
1 1 1
