# vtk DataFile Version 4.0
hesp visualization file
ASCII
DATASET UNSTRUCTURED_GRID
POINTS 26 double
0.44005 0.44005 0.44005
1 0.45005 0.45005
1.53995 0.46005 0.46005
0.47005 1 0.47005
1 1 0.48005
1.50995 1 0.49005
0.50005 1.49995 0.50005
1 1.48995 0.51005
1.47995 1.47995 0.52005
0.53005 0.53005 1
1 0.54005 1
1.44995 0.55005 1
0.56005 1 1
1.42995 1 1
0.58005 1.41995 1
1 1.40995 1
1.39995 1.39995 1
0.61005 0.61005 1.38995
1 0.62005 1.37995
1.36995 0.63005 1.36995
0.64005 1 1.35995
1 1 1.34995
1.33995 1 1.33995
0.67005 1.32995 1.32995
1 1.31995 1.31995
1.30995 1.30995 1.30995
CELLS 0 0
CELL_TYPES 0
POINT_DATA 26
SCALARS m double
LOOKUP_TABLE default
1
1
1
1
1
1
1
1
1
1
1
1
1
1
1
1
1
1
1
1
1
1
1
1
1
1
VECTORS v double
-1 -1 -1
0 -1 -1
1 -1 -1
-1 0 -1
0 0 -1
1 0 -1
-1 1 -1
0 1 -1
1 1 -1
-1 -1 0
0 -1 0
1 -1 0
-1 0 0
1 0 0
-1 1 0
0 1 0
1 1 0
-1 -1 1
0 -1 1
1 -1 1
-1 0 1
0 0 1
1 0 1
-1 1 1
0 1 1
1 1 1
